# vtk DataFile Version 4.0
2D velocity field
ASCII
DATASET STRUCTURED_GRID
DIMENSIONS 10 10 1
POINTS 100 float
0.00000000 0.00000000 1.0
1.00000000 0.00000000 1.0
2.00000000 0.00000000 1.0
3.00000000 0.00000000 1.0
4.00000000 0.00000000 1.0
5.00000000 0.00000000 1.0
6.00000000 0.00000000 1.0
7.00000000 0.00000000 1.0
8.00000000 0.00000000 1.0
9.00000000 0.00000000 1.0
0.00000000 1.00000000 1.0
1.00000000 1.00000000 1.0
2.00000000 1.00000000 1.0
3.00000000 1.00000000 1.0
4.00000000 1.00000000 1.0
5.00000000 1.00000000 1.0
6.00000000 1.00000000 1.0
7.00000000 1.00000000 1.0
8.00000000 1.00000000 1.0
9.00000000 1.00000000 1.0
0.00000000 2.00000000 1.0
1.00000000 2.00000000 1.0
2.00000000 2.00000000 1.0
3.00000000 2.00000000 1.0
4.00000000 2.00000000 1.0
5.00000000 2.00000000 1.0
6.00000000 2.00000000 1.0
7.00000000 2.00000000 1.0
8.00000000 2.00000000 1.0
9.00000000 2.00000000 1.0
0.00000000 3.00000000 1.0
1.00000000 3.00000000 1.0
2.00000000 3.00000000 1.0
3.00000000 3.00000000 1.0
4.00000000 3.00000000 1.0
5.00000000 3.00000000 1.0
6.00000000 3.00000000 1.0
7.00000000 3.00000000 1.0
8.00000000 3.00000000 1.0
9.00000000 3.00000000 1.0
0.00000000 4.00000000 1.0
1.00000000 4.00000000 1.0
2.00000000 4.00000000 1.0
3.00000000 4.00000000 1.0
4.00000000 4.00000000 1.0
5.00000000 4.00000000 1.0
6.00000000 4.00000000 1.0
7.00000000 4.00000000 1.0
8.00000000 4.00000000 1.0
9.00000000 4.00000000 1.0
0.00000000 5.00000000 1.0
1.00000000 5.00000000 1.0
2.00000000 5.00000000 1.0
3.00000000 5.00000000 1.0
4.00000000 5.00000000 1.0
5.00000000 5.00000000 1.0
6.00000000 5.00000000 1.0
7.00000000 5.00000000 1.0
8.00000000 5.00000000 1.0
9.00000000 5.00000000 1.0
0.00000000 6.00000000 1.0
1.00000000 6.00000000 1.0
2.00000000 6.00000000 1.0
3.00000000 6.00000000 1.0
4.00000000 6.00000000 1.0
5.00000000 6.00000000 1.0
6.00000000 6.00000000 1.0
7.00000000 6.00000000 1.0
8.00000000 6.00000000 1.0
9.00000000 6.00000000 1.0
0.00000000 7.00000000 1.0
1.00000000 7.00000000 1.0
2.00000000 7.00000000 1.0
3.00000000 7.00000000 1.0
4.00000000 7.00000000 1.0
5.00000000 7.00000000 1.0
6.00000000 7.00000000 1.0
7.00000000 7.00000000 1.0
8.00000000 7.00000000 1.0
9.00000000 7.00000000 1.0
0.00000000 8.00000000 1.0
1.00000000 8.00000000 1.0
2.00000000 8.00000000 1.0
3.00000000 8.00000000 1.0
4.00000000 8.00000000 1.0
5.00000000 8.00000000 1.0
6.00000000 8.00000000 1.0
7.00000000 8.00000000 1.0
8.00000000 8.00000000 1.0
9.00000000 8.00000000 1.0
0.00000000 9.00000000 1.0
1.00000000 9.00000000 1.0
2.00000000 9.00000000 1.0
3.00000000 9.00000000 1.0
4.00000000 9.00000000 1.0
5.00000000 9.00000000 1.0
6.00000000 9.00000000 1.0
7.00000000 9.00000000 1.0
8.00000000 9.00000000 1.0
9.00000000 9.00000000 1.0
POINT_DATA 100
VECTORS velocity double
0.00000000 -0.00000000 0.0
0.00000000 0.00000000 0.0
0.00000000 0.00000000 0.0
0.00000000 0.00000000 0.0
0.00000000 0.00000000 0.0
0.00000000 0.00000000 0.0
0.00000000 0.00000000 0.0
0.00000000 0.00000000 0.0
0.00000000 0.00000000 0.0
0.00000000 0.00000000 0.0
0.00000000 -0.00000000 0.0
0.00598337 0.00000000 0.0
0.01135002 0.00000000 0.0
0.01558788 0.00000000 0.0
0.01833678 0.00000000 0.0
0.01937861 0.00000000 0.0
0.01860934 0.00000000 0.0
0.01603426 0.00000000 0.0
0.01180329 0.00000000 0.0
0.00626708 0.00000000 0.0
0.00000000 -0.00000000 0.0
0.01340889 0.00000000 0.0
0.02540470 0.00000000 0.0
0.03484645 0.00000000 0.0
0.04096505 0.00000000 0.0
0.04330934 0.00000000 0.0
0.04165452 0.00000000 0.0
0.03597981 0.00000000 0.0
0.02656107 0.00000000 0.0
0.01413569 0.00000000 0.0
0.00000000 -0.00000000 0.0
0.02388264 0.00000000 0.0
0.04513149 0.00000000 0.0
0.06173823 0.00000000 0.0
0.07246420 0.00000000 0.0
0.07663491 0.00000000 0.0
0.07388710 0.00000000 0.0
0.06409218 0.00000000 0.0
0.04755358 0.00000000 0.0
0.02541635 0.00000000 0.0
0.00000000 -0.00000000 0.0
0.03939662 0.00000000 0.0
0.07407576 0.00000000 0.0
0.10081093 0.00000000 0.0
0.11793792 0.00000000 0.0
0.12470114 0.00000000 0.0
0.12062528 0.00000000 0.0
0.10530140 0.00000000 0.0
0.07875922 0.00000000 0.0
0.04239912 0.00000000 0.0
0.00000000 -0.00000000 0.0
0.06275880 0.00000000 0.0
0.11686934 0.00000000 0.0
0.15754308 0.00000000 0.0
0.18316186 0.00000000 0.0
0.19340393 0.00000000 0.0
0.18785323 0.00000000 0.0
0.16550330 0.00000000 0.0
0.12535181 0.00000000 0.0
0.06830989 0.00000000 0.0
0.00000000 -0.00000000 0.0
0.09863653 0.00000000 0.0
0.18024189 0.00000000 0.0
0.23883110 0.00000000 0.0
0.27458229 0.00000000 0.0
0.28894063 0.00000000 0.0
0.28203563 0.00000000 0.0
0.25177664 0.00000000 0.0
0.19451678 0.00000000 0.0
0.10831358 0.00000000 0.0
0.00000000 -0.00000000 0.0
0.15642001 0.00000000 0.0
0.27515683 0.00000000 0.0
0.35366339 0.00000000 0.0
0.39898622 0.00000000 0.0
0.41702549 0.00000000 0.0
0.40938420 0.00000000 0.0
0.37236941 0.00000000 0.0
0.29694573 0.00000000 0.0
0.17214567 0.00000000 0.0
0.00000000 -0.00000000 0.0
0.25882649 0.00000000 0.0
0.42096739 0.00000000 0.0
0.51351769 0.00000000 0.0
0.56228613 0.00000000 0.0
0.58114253 0.00000000 0.0
0.57408473 0.00000000 0.0
0.53586087 0.00000000 0.0
0.44937404 0.00000000 0.0
0.28185191 0.00000000 0.0
0.00000000 -0.00000000 0.0
0.47028553 0.00000000 0.0
0.65077629 0.00000000 0.0
0.72986402 0.00000000 0.0
0.76606451 0.00000000 0.0
0.77934361 0.00000000 0.0
0.77485045 0.00000000 0.0
0.74768988 0.00000000 0.0
0.67674311 0.00000000 0.0
0.49669897 0.00000000 0.0
