# vtk DataFile Version 4.0
2D velocity field
ASCII
DATASET STRUCTURED_GRID
DIMENSIONS 20 20 1
POINTS 400 float
0.00000000 0.00000000 1.0
1.00000000 0.00000000 1.0
2.00000000 0.00000000 1.0
3.00000000 0.00000000 1.0
4.00000000 0.00000000 1.0
5.00000000 0.00000000 1.0
6.00000000 0.00000000 1.0
7.00000000 0.00000000 1.0
8.00000000 0.00000000 1.0
9.00000000 0.00000000 1.0
10.00000000 0.00000000 1.0
11.00000000 0.00000000 1.0
12.00000000 0.00000000 1.0
13.00000000 0.00000000 1.0
14.00000000 0.00000000 1.0
15.00000000 0.00000000 1.0
16.00000000 0.00000000 1.0
17.00000000 0.00000000 1.0
18.00000000 0.00000000 1.0
19.00000000 0.00000000 1.0
0.00000000 1.00000000 1.0
1.00000000 1.00000000 1.0
2.00000000 1.00000000 1.0
3.00000000 1.00000000 1.0
4.00000000 1.00000000 1.0
5.00000000 1.00000000 1.0
6.00000000 1.00000000 1.0
7.00000000 1.00000000 1.0
8.00000000 1.00000000 1.0
9.00000000 1.00000000 1.0
10.00000000 1.00000000 1.0
11.00000000 1.00000000 1.0
12.00000000 1.00000000 1.0
13.00000000 1.00000000 1.0
14.00000000 1.00000000 1.0
15.00000000 1.00000000 1.0
16.00000000 1.00000000 1.0
17.00000000 1.00000000 1.0
18.00000000 1.00000000 1.0
19.00000000 1.00000000 1.0
0.00000000 2.00000000 1.0
1.00000000 2.00000000 1.0
2.00000000 2.00000000 1.0
3.00000000 2.00000000 1.0
4.00000000 2.00000000 1.0
5.00000000 2.00000000 1.0
6.00000000 2.00000000 1.0
7.00000000 2.00000000 1.0
8.00000000 2.00000000 1.0
9.00000000 2.00000000 1.0
10.00000000 2.00000000 1.0
11.00000000 2.00000000 1.0
12.00000000 2.00000000 1.0
13.00000000 2.00000000 1.0
14.00000000 2.00000000 1.0
15.00000000 2.00000000 1.0
16.00000000 2.00000000 1.0
17.00000000 2.00000000 1.0
18.00000000 2.00000000 1.0
19.00000000 2.00000000 1.0
0.00000000 3.00000000 1.0
1.00000000 3.00000000 1.0
2.00000000 3.00000000 1.0
3.00000000 3.00000000 1.0
4.00000000 3.00000000 1.0
5.00000000 3.00000000 1.0
6.00000000 3.00000000 1.0
7.00000000 3.00000000 1.0
8.00000000 3.00000000 1.0
9.00000000 3.00000000 1.0
10.00000000 3.00000000 1.0
11.00000000 3.00000000 1.0
12.00000000 3.00000000 1.0
13.00000000 3.00000000 1.0
14.00000000 3.00000000 1.0
15.00000000 3.00000000 1.0
16.00000000 3.00000000 1.0
17.00000000 3.00000000 1.0
18.00000000 3.00000000 1.0
19.00000000 3.00000000 1.0
0.00000000 4.00000000 1.0
1.00000000 4.00000000 1.0
2.00000000 4.00000000 1.0
3.00000000 4.00000000 1.0
4.00000000 4.00000000 1.0
5.00000000 4.00000000 1.0
6.00000000 4.00000000 1.0
7.00000000 4.00000000 1.0
8.00000000 4.00000000 1.0
9.00000000 4.00000000 1.0
10.00000000 4.00000000 1.0
11.00000000 4.00000000 1.0
12.00000000 4.00000000 1.0
13.00000000 4.00000000 1.0
14.00000000 4.00000000 1.0
15.00000000 4.00000000 1.0
16.00000000 4.00000000 1.0
17.00000000 4.00000000 1.0
18.00000000 4.00000000 1.0
19.00000000 4.00000000 1.0
0.00000000 5.00000000 1.0
1.00000000 5.00000000 1.0
2.00000000 5.00000000 1.0
3.00000000 5.00000000 1.0
4.00000000 5.00000000 1.0
5.00000000 5.00000000 1.0
6.00000000 5.00000000 1.0
7.00000000 5.00000000 1.0
8.00000000 5.00000000 1.0
9.00000000 5.00000000 1.0
10.00000000 5.00000000 1.0
11.00000000 5.00000000 1.0
12.00000000 5.00000000 1.0
13.00000000 5.00000000 1.0
14.00000000 5.00000000 1.0
15.00000000 5.00000000 1.0
16.00000000 5.00000000 1.0
17.00000000 5.00000000 1.0
18.00000000 5.00000000 1.0
19.00000000 5.00000000 1.0
0.00000000 6.00000000 1.0
1.00000000 6.00000000 1.0
2.00000000 6.00000000 1.0
3.00000000 6.00000000 1.0
4.00000000 6.00000000 1.0
5.00000000 6.00000000 1.0
6.00000000 6.00000000 1.0
7.00000000 6.00000000 1.0
8.00000000 6.00000000 1.0
9.00000000 6.00000000 1.0
10.00000000 6.00000000 1.0
11.00000000 6.00000000 1.0
12.00000000 6.00000000 1.0
13.00000000 6.00000000 1.0
14.00000000 6.00000000 1.0
15.00000000 6.00000000 1.0
16.00000000 6.00000000 1.0
17.00000000 6.00000000 1.0
18.00000000 6.00000000 1.0
19.00000000 6.00000000 1.0
0.00000000 7.00000000 1.0
1.00000000 7.00000000 1.0
2.00000000 7.00000000 1.0
3.00000000 7.00000000 1.0
4.00000000 7.00000000 1.0
5.00000000 7.00000000 1.0
6.00000000 7.00000000 1.0
7.00000000 7.00000000 1.0
8.00000000 7.00000000 1.0
9.00000000 7.00000000 1.0
10.00000000 7.00000000 1.0
11.00000000 7.00000000 1.0
12.00000000 7.00000000 1.0
13.00000000 7.00000000 1.0
14.00000000 7.00000000 1.0
15.00000000 7.00000000 1.0
16.00000000 7.00000000 1.0
17.00000000 7.00000000 1.0
18.00000000 7.00000000 1.0
19.00000000 7.00000000 1.0
0.00000000 8.00000000 1.0
1.00000000 8.00000000 1.0
2.00000000 8.00000000 1.0
3.00000000 8.00000000 1.0
4.00000000 8.00000000 1.0
5.00000000 8.00000000 1.0
6.00000000 8.00000000 1.0
7.00000000 8.00000000 1.0
8.00000000 8.00000000 1.0
9.00000000 8.00000000 1.0
10.00000000 8.00000000 1.0
11.00000000 8.00000000 1.0
12.00000000 8.00000000 1.0
13.00000000 8.00000000 1.0
14.00000000 8.00000000 1.0
15.00000000 8.00000000 1.0
16.00000000 8.00000000 1.0
17.00000000 8.00000000 1.0
18.00000000 8.00000000 1.0
19.00000000 8.00000000 1.0
0.00000000 9.00000000 1.0
1.00000000 9.00000000 1.0
2.00000000 9.00000000 1.0
3.00000000 9.00000000 1.0
4.00000000 9.00000000 1.0
5.00000000 9.00000000 1.0
6.00000000 9.00000000 1.0
7.00000000 9.00000000 1.0
8.00000000 9.00000000 1.0
9.00000000 9.00000000 1.0
10.00000000 9.00000000 1.0
11.00000000 9.00000000 1.0
12.00000000 9.00000000 1.0
13.00000000 9.00000000 1.0
14.00000000 9.00000000 1.0
15.00000000 9.00000000 1.0
16.00000000 9.00000000 1.0
17.00000000 9.00000000 1.0
18.00000000 9.00000000 1.0
19.00000000 9.00000000 1.0
0.00000000 10.00000000 1.0
1.00000000 10.00000000 1.0
2.00000000 10.00000000 1.0
3.00000000 10.00000000 1.0
4.00000000 10.00000000 1.0
5.00000000 10.00000000 1.0
6.00000000 10.00000000 1.0
7.00000000 10.00000000 1.0
8.00000000 10.00000000 1.0
9.00000000 10.00000000 1.0
10.00000000 10.00000000 1.0
11.00000000 10.00000000 1.0
12.00000000 10.00000000 1.0
13.00000000 10.00000000 1.0
14.00000000 10.00000000 1.0
15.00000000 10.00000000 1.0
16.00000000 10.00000000 1.0
17.00000000 10.00000000 1.0
18.00000000 10.00000000 1.0
19.00000000 10.00000000 1.0
0.00000000 11.00000000 1.0
1.00000000 11.00000000 1.0
2.00000000 11.00000000 1.0
3.00000000 11.00000000 1.0
4.00000000 11.00000000 1.0
5.00000000 11.00000000 1.0
6.00000000 11.00000000 1.0
7.00000000 11.00000000 1.0
8.00000000 11.00000000 1.0
9.00000000 11.00000000 1.0
10.00000000 11.00000000 1.0
11.00000000 11.00000000 1.0
12.00000000 11.00000000 1.0
13.00000000 11.00000000 1.0
14.00000000 11.00000000 1.0
15.00000000 11.00000000 1.0
16.00000000 11.00000000 1.0
17.00000000 11.00000000 1.0
18.00000000 11.00000000 1.0
19.00000000 11.00000000 1.0
0.00000000 12.00000000 1.0
1.00000000 12.00000000 1.0
2.00000000 12.00000000 1.0
3.00000000 12.00000000 1.0
4.00000000 12.00000000 1.0
5.00000000 12.00000000 1.0
6.00000000 12.00000000 1.0
7.00000000 12.00000000 1.0
8.00000000 12.00000000 1.0
9.00000000 12.00000000 1.0
10.00000000 12.00000000 1.0
11.00000000 12.00000000 1.0
12.00000000 12.00000000 1.0
13.00000000 12.00000000 1.0
14.00000000 12.00000000 1.0
15.00000000 12.00000000 1.0
16.00000000 12.00000000 1.0
17.00000000 12.00000000 1.0
18.00000000 12.00000000 1.0
19.00000000 12.00000000 1.0
0.00000000 13.00000000 1.0
1.00000000 13.00000000 1.0
2.00000000 13.00000000 1.0
3.00000000 13.00000000 1.0
4.00000000 13.00000000 1.0
5.00000000 13.00000000 1.0
6.00000000 13.00000000 1.0
7.00000000 13.00000000 1.0
8.00000000 13.00000000 1.0
9.00000000 13.00000000 1.0
10.00000000 13.00000000 1.0
11.00000000 13.00000000 1.0
12.00000000 13.00000000 1.0
13.00000000 13.00000000 1.0
14.00000000 13.00000000 1.0
15.00000000 13.00000000 1.0
16.00000000 13.00000000 1.0
17.00000000 13.00000000 1.0
18.00000000 13.00000000 1.0
19.00000000 13.00000000 1.0
0.00000000 14.00000000 1.0
1.00000000 14.00000000 1.0
2.00000000 14.00000000 1.0
3.00000000 14.00000000 1.0
4.00000000 14.00000000 1.0
5.00000000 14.00000000 1.0
6.00000000 14.00000000 1.0
7.00000000 14.00000000 1.0
8.00000000 14.00000000 1.0
9.00000000 14.00000000 1.0
10.00000000 14.00000000 1.0
11.00000000 14.00000000 1.0
12.00000000 14.00000000 1.0
13.00000000 14.00000000 1.0
14.00000000 14.00000000 1.0
15.00000000 14.00000000 1.0
16.00000000 14.00000000 1.0
17.00000000 14.00000000 1.0
18.00000000 14.00000000 1.0
19.00000000 14.00000000 1.0
0.00000000 15.00000000 1.0
1.00000000 15.00000000 1.0
2.00000000 15.00000000 1.0
3.00000000 15.00000000 1.0
4.00000000 15.00000000 1.0
5.00000000 15.00000000 1.0
6.00000000 15.00000000 1.0
7.00000000 15.00000000 1.0
8.00000000 15.00000000 1.0
9.00000000 15.00000000 1.0
10.00000000 15.00000000 1.0
11.00000000 15.00000000 1.0
12.00000000 15.00000000 1.0
13.00000000 15.00000000 1.0
14.00000000 15.00000000 1.0
15.00000000 15.00000000 1.0
16.00000000 15.00000000 1.0
17.00000000 15.00000000 1.0
18.00000000 15.00000000 1.0
19.00000000 15.00000000 1.0
0.00000000 16.00000000 1.0
1.00000000 16.00000000 1.0
2.00000000 16.00000000 1.0
3.00000000 16.00000000 1.0
4.00000000 16.00000000 1.0
5.00000000 16.00000000 1.0
6.00000000 16.00000000 1.0
7.00000000 16.00000000 1.0
8.00000000 16.00000000 1.0
9.00000000 16.00000000 1.0
10.00000000 16.00000000 1.0
11.00000000 16.00000000 1.0
12.00000000 16.00000000 1.0
13.00000000 16.00000000 1.0
14.00000000 16.00000000 1.0
15.00000000 16.00000000 1.0
16.00000000 16.00000000 1.0
17.00000000 16.00000000 1.0
18.00000000 16.00000000 1.0
19.00000000 16.00000000 1.0
0.00000000 17.00000000 1.0
1.00000000 17.00000000 1.0
2.00000000 17.00000000 1.0
3.00000000 17.00000000 1.0
4.00000000 17.00000000 1.0
5.00000000 17.00000000 1.0
6.00000000 17.00000000 1.0
7.00000000 17.00000000 1.0
8.00000000 17.00000000 1.0
9.00000000 17.00000000 1.0
10.00000000 17.00000000 1.0
11.00000000 17.00000000 1.0
12.00000000 17.00000000 1.0
13.00000000 17.00000000 1.0
14.00000000 17.00000000 1.0
15.00000000 17.00000000 1.0
16.00000000 17.00000000 1.0
17.00000000 17.00000000 1.0
18.00000000 17.00000000 1.0
19.00000000 17.00000000 1.0
0.00000000 18.00000000 1.0
1.00000000 18.00000000 1.0
2.00000000 18.00000000 1.0
3.00000000 18.00000000 1.0
4.00000000 18.00000000 1.0
5.00000000 18.00000000 1.0
6.00000000 18.00000000 1.0
7.00000000 18.00000000 1.0
8.00000000 18.00000000 1.0
9.00000000 18.00000000 1.0
10.00000000 18.00000000 1.0
11.00000000 18.00000000 1.0
12.00000000 18.00000000 1.0
13.00000000 18.00000000 1.0
14.00000000 18.00000000 1.0
15.00000000 18.00000000 1.0
16.00000000 18.00000000 1.0
17.00000000 18.00000000 1.0
18.00000000 18.00000000 1.0
19.00000000 18.00000000 1.0
0.00000000 19.00000000 1.0
1.00000000 19.00000000 1.0
2.00000000 19.00000000 1.0
3.00000000 19.00000000 1.0
4.00000000 19.00000000 1.0
5.00000000 19.00000000 1.0
6.00000000 19.00000000 1.0
7.00000000 19.00000000 1.0
8.00000000 19.00000000 1.0
9.00000000 19.00000000 1.0
10.00000000 19.00000000 1.0
11.00000000 19.00000000 1.0
12.00000000 19.00000000 1.0
13.00000000 19.00000000 1.0
14.00000000 19.00000000 1.0
15.00000000 19.00000000 1.0
16.00000000 19.00000000 1.0
17.00000000 19.00000000 1.0
18.00000000 19.00000000 1.0
19.00000000 19.00000000 1.0
POINT_DATA 400
VECTORS velocity double
0.00000000 0.00008239 0.0
0.00000041 -0.00008278 0.0
0.00000053 0.00033870 0.0
0.00000040 0.00080329 0.0
0.00000011 0.00113804 0.0
-0.00000025 0.00130171 0.0
-0.00000062 0.00130064 0.0
-0.00000094 0.00115890 0.0
-0.00000119 0.00090683 0.0
-0.00000135 0.00057629 0.0
-0.00000140 0.00019883 0.0
-0.00000135 -0.00019461 0.0
-0.00000119 -0.00057326 0.0
-0.00000094 -0.00090576 0.0
-0.00000062 -0.00115983 0.0
-0.00000025 -0.00130283 0.0
0.00000011 -0.00130389 0.0
0.00000040 -0.00113893 0.0
0.00000054 -0.00080223 0.0
0.00000041 -0.00033625 0.0
0.00000000 -0.00014445 0.0
-0.00020442 0.00014349 0.0
-0.00179777 0.00194043 0.0
-0.00477170 0.00378665 0.0
-0.00874122 0.00511779 0.0
-0.01319134 0.00576227 0.0
-0.01760563 0.00572487 0.0
-0.02152899 0.00509097 0.0
-0.02459661 0.00398127 0.0
-0.02654533 0.00252945 0.0
-0.02721655 0.00087181 0.0
-0.02655622 -0.00085601 0.0
-0.02461487 -0.00251837 0.0
-0.02154884 -0.00397794 0.0
-0.01762108 -0.00509562 0.0
-0.01319845 -0.00573472 0.0
-0.00873970 -0.00577241 0.0
-0.00476499 -0.00512320 0.0
-0.00179131 -0.00378467 0.0
-0.00020235 -0.00193290 0.0
0.00000000 -0.00124425 0.0
-0.00108729 0.00124318 0.0
-0.00462211 0.00547525 0.0
-0.01030685 0.00947139 0.0
-0.01748793 0.01229887 0.0
-0.02534655 0.01362089 0.0
-0.03305278 0.01343110 0.0
-0.03986259 0.01190078 0.0
-0.04517131 0.00928999 0.0
-0.04853863 0.00589677 0.0
-0.04969771 0.00203089 0.0
-0.04855746 -0.00199626 0.0
-0.04520338 -0.00587245 0.0
-0.03989856 -0.00928275 0.0
-0.03308277 -0.01191141 0.0
-0.02536360 -0.01345389 0.0
-0.01749055 -0.01364547 0.0
-0.01029949 -0.01231426 0.0
-0.00461291 -0.00947125 0.0
-0.00108329 -0.00546253 0.0
0.00000000 -0.00327740 0.0
-0.00202314 0.00327658 0.0
-0.00757291 0.01102501 0.0
-0.01589069 0.01778917 0.0
-0.02600174 0.02240992 0.0
-0.03682210 0.02444125 0.0
-0.04728925 0.02389825 0.0
-0.05646046 0.02107200 0.0
-0.06357240 0.01640193 0.0
-0.06807016 0.01039453 0.0
-0.06961770 0.00357843 0.0
-0.06810013 -0.00351383 0.0
-0.06362448 -0.01034810 0.0
-0.05652127 -0.01638596 0.0
-0.04734404 -0.02108865 0.0
-0.03685946 -0.02393847 0.0
-0.02601739 -0.02448754 0.0
-0.01588881 -0.02244284 0.0
-0.00756393 -0.01779613 0.0
-0.00201789 -0.01100856 0.0
0.00000000 -0.00619058 0.0
-0.00290506 0.00619026 0.0
-0.01047054 0.01859049 0.0
-0.02142887 0.02874750 0.0
-0.03441987 0.03540092 0.0
-0.04806988 0.03809125 0.0
-0.06109924 0.03692761 0.0
-0.07240645 0.03237921 0.0
-0.08111737 0.02511284 0.0
-0.08660534 0.01588250 0.0
-0.08849405 0.00546714 0.0
-0.08665458 -0.00535330 0.0
-0.08120457 -0.01579811 0.0
-0.07251207 -0.02507846 0.0
-0.06120076 -0.03239996 0.0
-0.04814824 -0.03699099 0.0
-0.03446518 -0.03817059 0.0
-0.02144337 -0.03546465 0.0
-0.01046702 -0.02877248 0.0
-0.00289987 -0.01857571 0.0
0.00000000 -0.00996835 0.0
-0.00377049 0.00996871 0.0
-0.01340022 0.02822023 0.0
-0.02709111 0.04243839 0.0
-0.04304172 0.05135153 0.0
-0.05954845 0.05459798 0.0
-0.07510570 0.05248486 0.0
-0.08847107 0.04574458 0.0
-0.09869185 0.03533363 0.0
-0.10510301 0.02229366 0.0
-0.10731193 0.00767606 0.0
-0.10518384 -0.00748139 0.0
-0.09883722 -0.02214473 0.0
-0.08865212 -0.03526356 0.0
-0.07528791 -0.04576416 0.0
-0.05970038 -0.05257852 0.0
-0.04314356 -0.05472742 0.0
-0.02714035 -0.05146787 0.0
-0.01341154 -0.04250128 0.0
-0.00376792 -0.02821933 0.0
0.00000000 -0.01466130 0.0
-0.00468515 0.01466254 0.0
-0.01651834 0.04005342 0.0
-0.03311856 0.05903861 0.0
-0.05218137 0.07041434 0.0
-0.07163141 0.07404802 0.0
-0.08972756 0.07058101 0.0
-0.10510518 0.06112220 0.0
-0.11676726 0.04699570 0.0
-0.12404621 0.02957262 0.0
-0.12655912 0.01018897 0.0
-0.12417425 -0.00986626 0.0
-0.11700027 -0.02931871 0.0
-0.10540158 -0.04686224 0.0
-0.09003585 -0.06112990 0.0
-0.07190179 -0.07071258 0.0
-0.05237813 -0.07425107 0.0
-0.03322989 -0.07061611 0.0
-0.01655921 -0.05917196 0.0
-0.00468956 -0.04008898 0.0
0.00000000 -0.02038305 0.0
-0.00571172 0.02038541 0.0
-0.01997872 0.05432042 0.0
-0.03972914 0.07878902 0.0
-0.06207351 0.09275872 0.0
-0.08452512 0.09649964 0.0
-0.10511230 0.09116819 0.0
-0.12238566 0.07839556 0.0
-0.13535608 0.05996612 0.0
-0.14340329 0.03761982 0.0
-0.14618872 0.01297440 0.0
-0.14359569 -0.01245929 0.0
-0.13570972 -0.03720468 0.0
-0.12284328 -0.05972868 0.0
-0.10560064 -0.07837254 0.0
-0.08496946 -0.09134376 0.0
-0.06241475 -0.09680578 0.0
-0.03993949 -0.09309137 0.0
-0.02006997 -0.07904148 0.0
-0.00572962 -0.05442933 0.0
0.00000000 -0.02730281 0.0
-0.00690532 0.02730661 0.0
-0.02390981 0.07132490 0.0
-0.04707280 0.10195201 0.0
-0.07280962 0.11849554 0.0
-0.09819097 0.12188098 0.0
-0.12104934 0.11402656 0.0
-0.13992436 0.09727058 0.0
-0.15391934 0.07396109 0.0
-0.16253490 0.04623539 0.0
-0.16552574 0.01596524 0.0
-0.16280717 -0.01517786 0.0
-0.15442436 -0.04558748 0.0
-0.14058808 -0.07356497 0.0
-0.12177363 -0.09718698 0.0
-0.09887034 -0.11424706 0.0
-0.07335321 -0.12232291 0.0
-0.04742781 -0.11901677 0.0
-0.02407857 -0.10239072 0.0
-0.00694570 -0.07156220 0.0
0.00000000 -0.03564307 0.0
-0.00831866 0.03564875 0.0
-0.02841372 0.09141996 0.0
-0.05520887 0.12874716 0.0
-0.08428437 0.14757104 0.0
-0.11226079 0.14985740 0.0
-0.13686161 0.13862738 0.0
-0.15674495 0.11715393 0.0
-0.17123635 0.08845249 0.0
-0.18006116 0.05506020 0.0
-0.18313291 0.01903699 0.0
-0.18042186 -0.01788891 0.0
-0.17191172 -0.05409762 0.0
-0.15764651 -0.08783017 0.0
-0.13786725 -0.11696625 0.0
-0.11323138 -0.13888292 0.0
-0.08508954 -0.15046475 0.0
-0.05575960 -0.14834671 0.0
-0.02869271 -0.12945762 0.0
-0.00839309 -0.09186182 0.0
0.00000000 -0.04568930 0.0
-0.01001388 0.04569748 0.0
-0.03357699 0.11498308 0.0
-0.06408867 0.15925884 0.0
-0.09613284 0.17961521 0.0
-0.12592951 0.17965407 0.0
-0.15126654 0.16396442 0.0
-0.17112838 0.13701576 0.0
-0.18524627 0.10257038 0.0
-0.19370412 0.06351804 0.0
-0.19665357 0.02198644 0.0
-0.19414742 -0.02039507 0.0
-0.18608516 -0.06215988 0.0
-0.17226792 -0.10164741 0.0
-0.15256846 -0.13666571 0.0
-0.12722455 -0.16422684 0.0
-0.09724695 -0.18044235 0.0
-0.06488438 -0.18070928 0.0
-0.03400211 -0.16033989 0.0
-0.01013638 -0.11572755 0.0
0.00000000 -0.05782137 0.0
-0.01208424 0.05783294 0.0
-0.03948906 0.14238790 0.0
-0.07352553 0.19329530 0.0
-0.10763150 0.21372118 0.0
-0.13779861 0.20982118 0.0
-0.16219062 0.18835643 0.0
-0.18042516 0.15525030 0.0
-0.19287330 0.11501852 0.0
-0.20012708 0.07077183 0.0
-0.20265629 0.02451565 0.0
-0.20062362 -0.02242774 0.0
-0.19382552 -0.06895797 0.0
-0.18174687 -0.11372607 0.0
-0.16374511 -0.15466747 0.0
-0.13940086 -0.18857109 0.0
-0.10906794 -0.21077527 0.0
-0.07460024 -0.21517698 0.0
-0.04009421 -0.19484592 0.0
-0.01227062 -0.14355114 0.0
0.00000000 -0.07258409 0.0
-0.01469311 0.07260041 0.0
-0.04625957 0.17395435 0.0
-0.08311546 0.23015119 0.0
-0.11751074 0.24811647 0.0
-0.14562463 0.23793507 0.0
-0.16651189 0.20924368 0.0
-0.18083375 0.16957217 0.0
-0.18985499 0.12403975 0.0
-0.19480336 0.07572020 0.0
-0.19651920 0.02623148 0.0
-0.19529183 -0.02365510 0.0
-0.19080969 -0.07344012 0.0
-0.18219941 -0.12233635 0.0
-0.16818270 -0.16868417 0.0
-0.14742935 -0.20932444 0.0
-0.11921578 -0.23898883 0.0
-0.08446533 -0.24992742 0.0
-0.04706674 -0.23224451 0.0
-0.01495932 -0.17565856 0.0
0.00000000 -0.09082447 0.0
-0.01814036 0.09084777 0.0
-0.05399850 0.20981250 0.0
-0.09201765 0.26817034 0.0
-0.12357370 0.27967251 0.0
-0.14589354 0.26025491 0.0
-0.15969609 0.22304623 0.0
-0.16715173 0.17702781 0.0
-0.17061033 0.12749835 0.0
-0.17196766 0.07707754 0.0
-0.17241296 0.02667678 0.0
-0.17235185 -0.02371620 0.0
-0.17138741 -0.07440457 0.0
-0.16832273 -0.12540102 0.0
-0.16122418 -0.17578273 0.0
-0.14766749 -0.22288113 0.0
-0.12538234 -0.26127398 0.0
-0.09356574 -0.28174403 0.0
-0.05500005 -0.27081020 0.0
-0.01849931 -0.21215931 0.0
0.00000000 -0.11392442 0.0
-0.02295729 0.11395869 0.0
-0.06263283 0.24948804 0.0
-0.09837581 0.30391331 0.0
-0.12191948 0.30321618 0.0
-0.13310417 0.27143960 0.0
-0.13529887 0.22524094 0.0
-0.13253537 0.17426431 0.0
-0.12821590 0.12317888 0.0
-0.12473227 0.07359391 0.0
-0.12346900 0.02541352 0.0
-0.12489127 -0.02229394 0.0
-0.12858102 -0.07071482 0.0
-0.13318286 -0.12079919 0.0
-0.13629690 -0.17266868 0.0
-0.13445762 -0.22472040 0.0
-0.12350850 -0.27222310 0.0
-0.09992243 -0.30533011 0.0
-0.06376038 -0.30697224 0.0
-0.02341199 -0.25250769 0.0
0.00000000 -0.14407779 0.0
-0.02994981 0.14413066 0.0
-0.07115602 0.29069425 0.0
-0.09788200 0.33063930 0.0
-0.10542909 0.31076326 0.0
-0.09863737 0.26464789 0.0
-0.08436748 0.21097105 0.0
-0.06837355 0.15827037 0.0
-0.05461364 0.10941897 0.0
-0.04548707 0.06446733 0.0
-0.04224811 0.02217456 0.0
-0.04530767 -0.01923437 0.0
-0.05433569 -0.06168679 0.0
-0.06814603 -0.10698885 0.0
-0.08437644 -0.15643827 0.0
-0.09904762 -0.21004923 0.0
-0.10629506 -0.26497565 0.0
-0.09904886 -0.31257631 0.0
-0.07222797 -0.33379313 0.0
-0.03047647 -0.29425919 0.0
0.00000000 -0.18405190 0.0
-0.03968022 0.18413878 0.0
-0.07510572 0.32611975 0.0
-0.08045627 0.33598984 0.0
-0.06107248 0.29137947 0.0
-0.02923260 0.23280801 0.0
0.00503248 0.17670597 0.0
0.03547494 0.12782791 0.0
0.05875092 0.08614300 0.0
0.07327068 0.04994756 0.0
0.07836700 0.01707824 0.0
0.07383485 -0.01470223 0.0
0.05978686 -0.04763880 0.0
0.03679840 -0.08400039 0.0
0.00637620 -0.12601607 0.0
-0.02818481 -0.17548822 0.0
-0.06060282 -0.23255764 0.0
-0.08066673 -0.29251241 0.0
-0.07575292 -0.33870694 0.0
-0.04018346 -0.32982865 0.0
0.00000000 -0.23339704 0.0
-0.04890873 0.23354918 0.0
-0.05895091 0.33616193 0.0
-0.02332967 0.30036860 0.0
0.03407805 0.23397174 0.0
0.09433393 0.17255213 0.0
0.14750844 0.12353147 0.0
0.18961142 0.08572493 0.0
0.21959591 0.05615851 0.0
0.23755024 0.03199323 0.0
0.24378086 0.01084762 0.0
0.23840586 -0.00932722 0.0
0.22123787 -0.03047081 0.0
0.19188902 -0.05465154 0.0
0.15016976 -0.08429681 0.0
0.09701235 -0.12233081 0.0
0.03631765 -0.17186294 0.0
-0.02195486 -0.23423989 0.0
-0.05858207 -0.30207973 0.0
-0.04911962 -0.33929111 0.0
0.00000000 -0.26707986 0.0
-0.03299939 0.26735451 0.0
0.02443148 0.27873106 0.0
0.12069276 0.20410732 0.0
0.21632417 0.13834034 0.0
0.29632452 0.09255177 0.0
0.35789819 0.06195780 0.0
0.40253085 0.04109227 0.0
0.43255721 0.02613215 0.0
0.44993508 0.01461536 0.0
0.45588459 0.00489810 0.0
0.45080977 -0.00425240 0.0
0.43428552 -0.01394656 0.0
0.40505584 -0.02542187 0.0
0.36109520 -0.04033618 0.0
0.29995155 -0.06118715 0.0
0.21996768 -0.09187908 0.0
0.12376427 -0.13803649 0.0
0.02633906 -0.20465451 0.0
-0.03240169 -0.28055036 0.0
0.00000000 -0.13710914 0.0
0.13227825 0.13728619 0.0
0.29834912 0.11307641 0.0
0.43327020 0.06940937 0.0
0.53066478 0.04107769 0.0
0.59840418 0.02489672 0.0
0.64484757 0.01557101 0.0
0.67610478 0.00987363 0.0
0.69616164 0.00610085 0.0
0.70744114 0.00335106 0.0
0.71123881 0.00110655 0.0
0.70796580 -0.00098205 0.0
0.69722383 -0.00321655 0.0
0.67772486 -0.00594559 0.0
0.64703879 -0.00968639 0.0
0.60114028 -0.01534375 0.0
0.53381649 -0.02463919 0.0
0.43650436 -0.04085723 0.0
0.30104053 -0.06941658 0.0
0.13365451 -0.11358580 0.0
