# vtk DataFile Version 4.0
2D velocity field
ASCII
DATASET STRUCTURED_GRID
DIMENSIONS 40 40 1
POINTS 1600 float
0.00000000 0.00000000 1.0
1.00000000 0.00000000 1.0
2.00000000 0.00000000 1.0
3.00000000 0.00000000 1.0
4.00000000 0.00000000 1.0
5.00000000 0.00000000 1.0
6.00000000 0.00000000 1.0
7.00000000 0.00000000 1.0
8.00000000 0.00000000 1.0
9.00000000 0.00000000 1.0
10.00000000 0.00000000 1.0
11.00000000 0.00000000 1.0
12.00000000 0.00000000 1.0
13.00000000 0.00000000 1.0
14.00000000 0.00000000 1.0
15.00000000 0.00000000 1.0
16.00000000 0.00000000 1.0
17.00000000 0.00000000 1.0
18.00000000 0.00000000 1.0
19.00000000 0.00000000 1.0
20.00000000 0.00000000 1.0
21.00000000 0.00000000 1.0
22.00000000 0.00000000 1.0
23.00000000 0.00000000 1.0
24.00000000 0.00000000 1.0
25.00000000 0.00000000 1.0
26.00000000 0.00000000 1.0
27.00000000 0.00000000 1.0
28.00000000 0.00000000 1.0
29.00000000 0.00000000 1.0
30.00000000 0.00000000 1.0
31.00000000 0.00000000 1.0
32.00000000 0.00000000 1.0
33.00000000 0.00000000 1.0
34.00000000 0.00000000 1.0
35.00000000 0.00000000 1.0
36.00000000 0.00000000 1.0
37.00000000 0.00000000 1.0
38.00000000 0.00000000 1.0
39.00000000 0.00000000 1.0
0.00000000 1.00000000 1.0
1.00000000 1.00000000 1.0
2.00000000 1.00000000 1.0
3.00000000 1.00000000 1.0
4.00000000 1.00000000 1.0
5.00000000 1.00000000 1.0
6.00000000 1.00000000 1.0
7.00000000 1.00000000 1.0
8.00000000 1.00000000 1.0
9.00000000 1.00000000 1.0
10.00000000 1.00000000 1.0
11.00000000 1.00000000 1.0
12.00000000 1.00000000 1.0
13.00000000 1.00000000 1.0
14.00000000 1.00000000 1.0
15.00000000 1.00000000 1.0
16.00000000 1.00000000 1.0
17.00000000 1.00000000 1.0
18.00000000 1.00000000 1.0
19.00000000 1.00000000 1.0
20.00000000 1.00000000 1.0
21.00000000 1.00000000 1.0
22.00000000 1.00000000 1.0
23.00000000 1.00000000 1.0
24.00000000 1.00000000 1.0
25.00000000 1.00000000 1.0
26.00000000 1.00000000 1.0
27.00000000 1.00000000 1.0
28.00000000 1.00000000 1.0
29.00000000 1.00000000 1.0
30.00000000 1.00000000 1.0
31.00000000 1.00000000 1.0
32.00000000 1.00000000 1.0
33.00000000 1.00000000 1.0
34.00000000 1.00000000 1.0
35.00000000 1.00000000 1.0
36.00000000 1.00000000 1.0
37.00000000 1.00000000 1.0
38.00000000 1.00000000 1.0
39.00000000 1.00000000 1.0
0.00000000 2.00000000 1.0
1.00000000 2.00000000 1.0
2.00000000 2.00000000 1.0
3.00000000 2.00000000 1.0
4.00000000 2.00000000 1.0
5.00000000 2.00000000 1.0
6.00000000 2.00000000 1.0
7.00000000 2.00000000 1.0
8.00000000 2.00000000 1.0
9.00000000 2.00000000 1.0
10.00000000 2.00000000 1.0
11.00000000 2.00000000 1.0
12.00000000 2.00000000 1.0
13.00000000 2.00000000 1.0
14.00000000 2.00000000 1.0
15.00000000 2.00000000 1.0
16.00000000 2.00000000 1.0
17.00000000 2.00000000 1.0
18.00000000 2.00000000 1.0
19.00000000 2.00000000 1.0
20.00000000 2.00000000 1.0
21.00000000 2.00000000 1.0
22.00000000 2.00000000 1.0
23.00000000 2.00000000 1.0
24.00000000 2.00000000 1.0
25.00000000 2.00000000 1.0
26.00000000 2.00000000 1.0
27.00000000 2.00000000 1.0
28.00000000 2.00000000 1.0
29.00000000 2.00000000 1.0
30.00000000 2.00000000 1.0
31.00000000 2.00000000 1.0
32.00000000 2.00000000 1.0
33.00000000 2.00000000 1.0
34.00000000 2.00000000 1.0
35.00000000 2.00000000 1.0
36.00000000 2.00000000 1.0
37.00000000 2.00000000 1.0
38.00000000 2.00000000 1.0
39.00000000 2.00000000 1.0
0.00000000 3.00000000 1.0
1.00000000 3.00000000 1.0
2.00000000 3.00000000 1.0
3.00000000 3.00000000 1.0
4.00000000 3.00000000 1.0
5.00000000 3.00000000 1.0
6.00000000 3.00000000 1.0
7.00000000 3.00000000 1.0
8.00000000 3.00000000 1.0
9.00000000 3.00000000 1.0
10.00000000 3.00000000 1.0
11.00000000 3.00000000 1.0
12.00000000 3.00000000 1.0
13.00000000 3.00000000 1.0
14.00000000 3.00000000 1.0
15.00000000 3.00000000 1.0
16.00000000 3.00000000 1.0
17.00000000 3.00000000 1.0
18.00000000 3.00000000 1.0
19.00000000 3.00000000 1.0
20.00000000 3.00000000 1.0
21.00000000 3.00000000 1.0
22.00000000 3.00000000 1.0
23.00000000 3.00000000 1.0
24.00000000 3.00000000 1.0
25.00000000 3.00000000 1.0
26.00000000 3.00000000 1.0
27.00000000 3.00000000 1.0
28.00000000 3.00000000 1.0
29.00000000 3.00000000 1.0
30.00000000 3.00000000 1.0
31.00000000 3.00000000 1.0
32.00000000 3.00000000 1.0
33.00000000 3.00000000 1.0
34.00000000 3.00000000 1.0
35.00000000 3.00000000 1.0
36.00000000 3.00000000 1.0
37.00000000 3.00000000 1.0
38.00000000 3.00000000 1.0
39.00000000 3.00000000 1.0
0.00000000 4.00000000 1.0
1.00000000 4.00000000 1.0
2.00000000 4.00000000 1.0
3.00000000 4.00000000 1.0
4.00000000 4.00000000 1.0
5.00000000 4.00000000 1.0
6.00000000 4.00000000 1.0
7.00000000 4.00000000 1.0
8.00000000 4.00000000 1.0
9.00000000 4.00000000 1.0
10.00000000 4.00000000 1.0
11.00000000 4.00000000 1.0
12.00000000 4.00000000 1.0
13.00000000 4.00000000 1.0
14.00000000 4.00000000 1.0
15.00000000 4.00000000 1.0
16.00000000 4.00000000 1.0
17.00000000 4.00000000 1.0
18.00000000 4.00000000 1.0
19.00000000 4.00000000 1.0
20.00000000 4.00000000 1.0
21.00000000 4.00000000 1.0
22.00000000 4.00000000 1.0
23.00000000 4.00000000 1.0
24.00000000 4.00000000 1.0
25.00000000 4.00000000 1.0
26.00000000 4.00000000 1.0
27.00000000 4.00000000 1.0
28.00000000 4.00000000 1.0
29.00000000 4.00000000 1.0
30.00000000 4.00000000 1.0
31.00000000 4.00000000 1.0
32.00000000 4.00000000 1.0
33.00000000 4.00000000 1.0
34.00000000 4.00000000 1.0
35.00000000 4.00000000 1.0
36.00000000 4.00000000 1.0
37.00000000 4.00000000 1.0
38.00000000 4.00000000 1.0
39.00000000 4.00000000 1.0
0.00000000 5.00000000 1.0
1.00000000 5.00000000 1.0
2.00000000 5.00000000 1.0
3.00000000 5.00000000 1.0
4.00000000 5.00000000 1.0
5.00000000 5.00000000 1.0
6.00000000 5.00000000 1.0
7.00000000 5.00000000 1.0
8.00000000 5.00000000 1.0
9.00000000 5.00000000 1.0
10.00000000 5.00000000 1.0
11.00000000 5.00000000 1.0
12.00000000 5.00000000 1.0
13.00000000 5.00000000 1.0
14.00000000 5.00000000 1.0
15.00000000 5.00000000 1.0
16.00000000 5.00000000 1.0
17.00000000 5.00000000 1.0
18.00000000 5.00000000 1.0
19.00000000 5.00000000 1.0
20.00000000 5.00000000 1.0
21.00000000 5.00000000 1.0
22.00000000 5.00000000 1.0
23.00000000 5.00000000 1.0
24.00000000 5.00000000 1.0
25.00000000 5.00000000 1.0
26.00000000 5.00000000 1.0
27.00000000 5.00000000 1.0
28.00000000 5.00000000 1.0
29.00000000 5.00000000 1.0
30.00000000 5.00000000 1.0
31.00000000 5.00000000 1.0
32.00000000 5.00000000 1.0
33.00000000 5.00000000 1.0
34.00000000 5.00000000 1.0
35.00000000 5.00000000 1.0
36.00000000 5.00000000 1.0
37.00000000 5.00000000 1.0
38.00000000 5.00000000 1.0
39.00000000 5.00000000 1.0
0.00000000 6.00000000 1.0
1.00000000 6.00000000 1.0
2.00000000 6.00000000 1.0
3.00000000 6.00000000 1.0
4.00000000 6.00000000 1.0
5.00000000 6.00000000 1.0
6.00000000 6.00000000 1.0
7.00000000 6.00000000 1.0
8.00000000 6.00000000 1.0
9.00000000 6.00000000 1.0
10.00000000 6.00000000 1.0
11.00000000 6.00000000 1.0
12.00000000 6.00000000 1.0
13.00000000 6.00000000 1.0
14.00000000 6.00000000 1.0
15.00000000 6.00000000 1.0
16.00000000 6.00000000 1.0
17.00000000 6.00000000 1.0
18.00000000 6.00000000 1.0
19.00000000 6.00000000 1.0
20.00000000 6.00000000 1.0
21.00000000 6.00000000 1.0
22.00000000 6.00000000 1.0
23.00000000 6.00000000 1.0
24.00000000 6.00000000 1.0
25.00000000 6.00000000 1.0
26.00000000 6.00000000 1.0
27.00000000 6.00000000 1.0
28.00000000 6.00000000 1.0
29.00000000 6.00000000 1.0
30.00000000 6.00000000 1.0
31.00000000 6.00000000 1.0
32.00000000 6.00000000 1.0
33.00000000 6.00000000 1.0
34.00000000 6.00000000 1.0
35.00000000 6.00000000 1.0
36.00000000 6.00000000 1.0
37.00000000 6.00000000 1.0
38.00000000 6.00000000 1.0
39.00000000 6.00000000 1.0
0.00000000 7.00000000 1.0
1.00000000 7.00000000 1.0
2.00000000 7.00000000 1.0
3.00000000 7.00000000 1.0
4.00000000 7.00000000 1.0
5.00000000 7.00000000 1.0
6.00000000 7.00000000 1.0
7.00000000 7.00000000 1.0
8.00000000 7.00000000 1.0
9.00000000 7.00000000 1.0
10.00000000 7.00000000 1.0
11.00000000 7.00000000 1.0
12.00000000 7.00000000 1.0
13.00000000 7.00000000 1.0
14.00000000 7.00000000 1.0
15.00000000 7.00000000 1.0
16.00000000 7.00000000 1.0
17.00000000 7.00000000 1.0
18.00000000 7.00000000 1.0
19.00000000 7.00000000 1.0
20.00000000 7.00000000 1.0
21.00000000 7.00000000 1.0
22.00000000 7.00000000 1.0
23.00000000 7.00000000 1.0
24.00000000 7.00000000 1.0
25.00000000 7.00000000 1.0
26.00000000 7.00000000 1.0
27.00000000 7.00000000 1.0
28.00000000 7.00000000 1.0
29.00000000 7.00000000 1.0
30.00000000 7.00000000 1.0
31.00000000 7.00000000 1.0
32.00000000 7.00000000 1.0
33.00000000 7.00000000 1.0
34.00000000 7.00000000 1.0
35.00000000 7.00000000 1.0
36.00000000 7.00000000 1.0
37.00000000 7.00000000 1.0
38.00000000 7.00000000 1.0
39.00000000 7.00000000 1.0
0.00000000 8.00000000 1.0
1.00000000 8.00000000 1.0
2.00000000 8.00000000 1.0
3.00000000 8.00000000 1.0
4.00000000 8.00000000 1.0
5.00000000 8.00000000 1.0
6.00000000 8.00000000 1.0
7.00000000 8.00000000 1.0
8.00000000 8.00000000 1.0
9.00000000 8.00000000 1.0
10.00000000 8.00000000 1.0
11.00000000 8.00000000 1.0
12.00000000 8.00000000 1.0
13.00000000 8.00000000 1.0
14.00000000 8.00000000 1.0
15.00000000 8.00000000 1.0
16.00000000 8.00000000 1.0
17.00000000 8.00000000 1.0
18.00000000 8.00000000 1.0
19.00000000 8.00000000 1.0
20.00000000 8.00000000 1.0
21.00000000 8.00000000 1.0
22.00000000 8.00000000 1.0
23.00000000 8.00000000 1.0
24.00000000 8.00000000 1.0
25.00000000 8.00000000 1.0
26.00000000 8.00000000 1.0
27.00000000 8.00000000 1.0
28.00000000 8.00000000 1.0
29.00000000 8.00000000 1.0
30.00000000 8.00000000 1.0
31.00000000 8.00000000 1.0
32.00000000 8.00000000 1.0
33.00000000 8.00000000 1.0
34.00000000 8.00000000 1.0
35.00000000 8.00000000 1.0
36.00000000 8.00000000 1.0
37.00000000 8.00000000 1.0
38.00000000 8.00000000 1.0
39.00000000 8.00000000 1.0
0.00000000 9.00000000 1.0
1.00000000 9.00000000 1.0
2.00000000 9.00000000 1.0
3.00000000 9.00000000 1.0
4.00000000 9.00000000 1.0
5.00000000 9.00000000 1.0
6.00000000 9.00000000 1.0
7.00000000 9.00000000 1.0
8.00000000 9.00000000 1.0
[...]
POINT_DATA 1600
VECTORS velocity double
0.00000000 0.00002935 0.0
0.00000026 -0.00002948 0.0
0.00000049 -0.00000864 0.0
0.00000064 0.00005223 0.0
0.00000069 0.00012513 0.0
0.00000065 0.00019579 0.0
0.00000055 0.00025765 0.0
0.00000040 0.00030786 0.0
0.00000021 0.00034539 0.0
0.00000001 0.00037013 0.0
-0.00000020 0.00038246 0.0
-0.00000041 0.00038306 0.0
-0.00000062 0.00037281 0.0
-0.00000082 0.00035270 0.0
-0.00000099 0.00032380 0.0
-0.00000115 0.00028723 0.0
-0.00000128 0.00024415 0.0
-0.00000139 0.00019572 0.0
-0.00000147 0.00014312 0.0
-0.00000151 0.00008753 0.0
-0.00000153 0.00003013 0.0
-0.00000151 -0.00002791 0.0
-0.00000147 -0.00008540 0.0
-0.00000139 -0.00014115 0.0
-0.00000129 -0.00019396 0.0
-0.00000115 -0.00024264 0.0
-0.00000100 -0.00028597 0.0
-0.00000082 -0.00032277 0.0
-0.00000062 -0.00035186 0.0
-0.00000041 -0.00037208 0.0
-0.00000020 -0.00038235 0.0
0.00000001 -0.00038166 0.0
0.00000022 -0.00036916 0.0
0.00000040 -0.00034417 0.0
0.00000055 -0.00030634 0.0
0.00000065 -0.00025581 0.0
0.00000069 -0.00019366 0.0
0.00000064 -0.00012279 0.0
0.00000049 -0.00004982 0.0
0.00000025 0.00001091 0.0
0.00000000 0.00008962 0.0
0.00010299 -0.00009019 0.0
0.00007659 0.00003244 0.0
-0.00015250 0.00029701 0.0
-0.00061701 0.00060660 0.0
-0.00131158 0.00090870 0.0
-0.00221042 0.00117614 0.0
-0.00327730 0.00139549 0.0
-0.00447122 0.00156085 0.0
-0.00574971 0.00167058 0.0
-0.00707086 0.00172559 0.0
-0.00839460 0.00172839 0.0
-0.00968354 0.00168250 0.0
-0.01090347 0.00159215 0.0
-0.01202382 0.00146202 0.0
-0.01301781 0.00129711 0.0
-0.01386263 0.00110256 0.0
-0.01453956 0.00088367 0.0
-0.01503395 0.00064576 0.0
-0.01533531 0.00039420 0.0
-0.01543726 0.00013436 0.0
-0.01533760 -0.00012835 0.0
-0.01503828 -0.00038853 0.0
-0.01454543 -0.00064075 0.0
-0.01386936 -0.00087956 0.0
-0.01302461 -0.00109949 0.0
-0.01202988 -0.00129511 0.0
-0.01090805 -0.00146101 0.0
-0.00968605 -0.00159190 0.0
-0.00839471 -0.00168270 0.0
-0.00706850 -0.00172867 0.0
-0.00574514 -0.00172554 0.0
-0.00446499 -0.00166979 0.0
-0.00327022 -0.00155900 0.0
-0.00220343 -0.00139238 0.0
-0.00130565 -0.00117174 0.0
-0.00061300 -0.00090317 0.0
-0.00015095 -0.00060031 0.0
0.00007563 -0.00029058 0.0
0.00010017 -0.00002682 0.0
0.00000000 0.00009274 0.0
0.00003058 -0.00009383 0.0
-0.00020574 0.00026876 0.0
-0.00079775 0.00088902 0.0
-0.00178469 0.00159354 0.0
-0.00315685 0.00228086 0.0
-0.00487377 0.00289306 0.0
-0.00687674 0.00339846 0.0
-0.00909718 0.00378129 0.0
-0.01146232 0.00403572 0.0
-0.01389899 0.00416226 0.0
-0.01633624 0.00416564 0.0
-0.01870714 0.00405340 0.0
-0.02095003 0.00383503 0.0
-0.02300935 0.00352135 0.0
-0.02483626 0.00312402 0.0
-0.02638902 0.00265532 0.0
-0.02763320 0.00212785 0.0
-0.02854187 0.00155443 0.0
-0.02909568 0.00094801 0.0
-0.02928290 0.00032158 0.0
-0.02909947 -0.00031178 0.0
-0.02854903 -0.00093898 0.0
-0.02764290 -0.00154687 0.0
-0.02640016 -0.00212231 0.0
-0.02484753 -0.00265212 0.0
-0.02301942 -0.00312323 0.0
-0.02095767 -0.00352275 0.0
-0.01871141 -0.00383816 0.0
-0.01633655 -0.00405756 0.0
-0.01389523 -0.00416998 0.0
-0.01145491 -0.00416587 0.0
-0.00908699 -0.00403771 0.0
-0.00686504 -0.00378095 0.0
-0.00486208 -0.00339534 0.0
-0.00314670 -0.00288711 0.0
-0.00177740 -0.00227247 0.0
-0.00079409 -0.00158361 0.0
-0.00020568 -0.00087899 0.0
0.00002811 -0.00026061 0.0
0.00000000 -0.00003430 0.0
-0.00010200 0.00003294 0.0
-0.00063926 0.00080602 0.0
-0.00167162 0.00192138 0.0
-0.00322336 0.00314528 0.0
-0.00527293 0.00433043 0.0
-0.00776608 0.00538621 0.0
-0.01062687 0.00625926 0.0
-0.01376639 0.00692081 0.0
-0.01708928 0.00735861 0.0
-0.02049866 0.00757164 0.0
-0.02389971 0.00756669 0.0
-0.02720229 0.00735598 0.0
-0.03032284 0.00695558 0.0
-0.03318569 0.00638420 0.0
-0.03572407 0.00566240 0.0
-0.03788073 0.00481197 0.0
-0.03960835 0.00385547 0.0
-0.04086985 0.00281593 0.0
-0.04163856 0.00171672 0.0
-0.04189833 0.00058135 0.0
-0.04164355 -0.00056655 0.0
-0.04087927 -0.00170325 0.0
-0.03962116 -0.00280499 0.0
-0.03789550 -0.00384797 0.0
-0.03573913 -0.00480848 0.0
-0.03319932 -0.00566304 0.0
-0.03033345 -0.00638862 0.0
-0.02720863 -0.00696298 0.0
-0.02390099 -0.00736520 0.0
-0.02049470 -0.00757628 0.0
-0.01708052 -0.00758004 0.0
-0.01375390 -0.00736433 0.0
-0.01061220 -0.00692264 0.0
-0.00775110 -0.00625645 0.0
-0.00525956 -0.00537865 0.0
-0.00321325 -0.00431879 0.0
-0.00166578 -0.00313108 0.0
-0.00063777 -0.00190700 0.0
-0.00010378 -0.00079459 0.0
0.00000000 -0.00030434 0.0
-0.00024791 0.00030289 0.0
-0.00112062 0.00167873 0.0
-0.00262983 0.00343059 0.0
-0.00477014 0.00528559 0.0
-0.00749966 0.00705995 0.0
-0.01074710 0.00863365 0.0
-0.01441983 0.00993199 0.0
-0.01841144 0.01091242 0.0
-0.02260818 0.01155535 0.0
-0.02689422 0.01185768 0.0
-0.03115573 0.01182819 0.0
-0.03528404 0.01148430 0.0
-0.03917807 0.01084960 0.0
-0.04274600 0.00995213 0.0
-0.04590659 0.00882300 0.0
-0.04859005 0.00749542 0.0
-0.05073860 0.00600402 0.0
-0.05230693 0.00438427 0.0
-0.05326242 0.00267221 0.0
-0.05358529 0.00090422 0.0
-0.05326871 -0.00088313 0.0
-0.05231886 -0.00265311 0.0
-0.05075491 -0.00436894 0.0
-0.04860903 -0.00599385 0.0
-0.04592625 -0.00749126 0.0
-0.04276424 -0.00882505 0.0
-0.03919296 -0.00995990 0.0
-0.03529400 -0.01086194 0.0
-0.03115971 -0.01149948 0.0
-0.02689189 -0.01184410 0.0
-0.02259994 -0.01187200 0.0
-0.01839839 -0.01156588 0.0
-0.01440372 -0.01091731 0.0
-0.01073006 -0.00993010 0.0
-0.00748394 -0.00862478 0.0
-0.00475771 -0.00704501 0.0
-0.00262204 -0.00526676 0.0
-0.00111779 -0.00341125 0.0
-0.00024912 -0.00166326 0.0
0.00000000 -0.00071376 0.0
-0.00039031 0.00071234 0.0
-0.00160381 0.00289223 0.0
-0.00360088 0.00542766 0.0
-0.00633886 0.00802357 0.0
-0.00974901 0.01047009 0.0
-0.01373885 0.01262350 0.0
-0.01819738 0.01439052 0.0
-0.02300098 0.01571601 0.0
-0.02801917 0.01657355 0.0
-0.03311973 0.01695824 0.0
-0.03817289 0.01688135 0.0
-0.04305472 0.01636613 0.0
-0.04764982 0.01544471 0.0
-0.05185331 0.01415562 0.0
-0.05557228 0.01254196 0.0
-0.05872684 0.01064999 0.0
-0.06125087 0.00852804 0.0
-0.06309243 0.00622584 0.0
-0.06421416 0.00379393 0.0
-0.06459337 0.00128343 0.0
-0.06422224 -0.00125426 0.0
-0.06310783 -0.00376752 0.0
-0.06127210 -0.00620466 0.0
-0.05875189 -0.00851406 0.0
-0.05559875 -0.01064440 0.0
-0.05187869 -0.01254510 0.0
-0.04767174 -0.01416686 0.0
-0.04307117 -0.01546251 0.0
-0.03818248 -0.01638817 0.0
-0.03312184 -0.01690474 0.0
-0.02801403 -0.01697982 0.0
-0.02298967 -0.01659024 0.0
-0.01818174 -0.01572524 0.0
-0.01372123 -0.01439061 0.0
-0.00973197 -0.01261404 0.0
-0.00632479 -0.01045219 0.0
-0.00359153 -0.00800001 0.0
-0.00159990 -0.00540288 0.0
-0.00039109 -0.00287207 0.0
0.00000000 -0.00125455 0.0
-0.00052461 0.00125327 0.0
-0.00207204 0.00443966 0.0
-0.00455492 0.00791054 0.0
-0.00789102 0.01135967 0.0
-0.01198071 0.01455978 0.0
-0.01670676 0.01734955 0.0
-0.02193739 0.01962114 0.0
-0.02753073 0.02130935 0.0
-0.03333974 0.02238256 0.0
-0.03921684 0.02283535 0.0
-0.04501800 0.02268251 0.0
-0.05060612 0.02195425 0.0
-0.05585377 0.02069235 0.0
-0.06064527 0.01894712 0.0
-0.06487825 0.01677495 0.0
-0.06846475 0.01423649 0.0
-0.07133199 0.01139528 0.0
-0.07342284 0.00831669 0.0
-0.07469618 0.00506728 0.0
-0.07512708 0.00171433 0.0
-0.07470689 -0.00167445 0.0
-0.07344333 -0.00503108 0.0
-0.07136051 -0.00828748 0.0
-0.06849888 -0.01137569 0.0
-0.06491509 -0.01422819 0.0
-0.06068176 -0.01677844 0.0
-0.05588694 -0.01896168 0.0
-0.05063339 -0.02071606 0.0
-0.04503745 -0.02198411 0.0
-0.03922740 -0.02271478 0.0
-0.03334134 -0.02286588 0.0
-0.02752431 -0.02240727 0.0
-0.02192479 -0.02132476 0.0
-0.01669054 -0.01962487 0.0
-0.01196378 -0.01734080 0.0
-0.00787625 -0.01453972 0.0
-0.00454460 -0.01133167 0.0
-0.00206733 -0.00788015 0.0
-0.00052506 -0.00441433 0.0
0.00000000 -0.00191908 0.0
-0.00065098 0.00191800 0.0
-0.00252256 0.00631124 0.0
-0.00548483 0.01087281 0.0
-0.00941630 0.01529114 0.0
-0.01418449 0.01932797 0.0
-0.01964475 0.02280982 0.0
-0.02564219 0.02561858 0.0
-0.03201514 0.02768230 0.0
-0.03859927 0.02896670 0.0
-0.04523178 0.02946785 0.0
-0.05175511 0.02920583 0.0
-0.05802021 0.02821935 0.0
-0.06388916 0.02656130 0.0
-0.06923718 0.02429513 0.0
-0.07395413 0.02149190 0.0
-0.07794560 0.01822796 0.0
-0.08113359 0.01458327 0.0
-0.08345697 0.01064007 0.0
-0.08487176 0.00648207 0.0
-0.08535127 0.00219384 0.0
-0.08488622 -0.00213950 0.0
-0.08348479 -0.00643251 0.0
-0.08117265 -0.01059963 0.0
-0.07799295 -0.01455539 0.0
-0.07400622 -0.01821491 0.0
-0.06929019 -0.02149447 0.0
-0.06393933 -0.02431255 0.0
-0.05806415 -0.02659124 0.0
-0.05179014 -0.02825812 0.0
-0.04525620 -0.02924872 0.0
-0.03861252 -0.02950956 0.0
-0.03201786 -0.02900194 0.0
-0.02563616 -0.02770645 0.0
-0.01963268 -0.02562834 0.0
-0.01416969 -0.02280380 0.0
-0.00940217 -0.01930724 0.0
-0.00547429 -0.01525954 0.0
-0.00251743 -0.01083702 0.0
-0.00065121 -0.00628055 0.0
0.00000000 -0.00270173 0.0
-0.00077131 0.00270092 0.0
-0.00295903 0.00849896 0.0
-0.00639508 0.01430885 0.0
-0.01092007 0.01981613 0.0
-0.01636775 0.02477564 0.0
-0.02256418 0.02900625 0.0
-0.02932936 0.03238377 0.0
-0.03648014 0.03483308 0.0
-0.04383387 0.03632042 0.0
-0.05121205 0.03684603 0.0
-0.05844380 0.03643759 0.0
-0.06536879 0.03514434 0.0
-0.07183963 0.03303214 0.0
-0.07772368 0.03017919 0.0
-0.08290444 0.02667265 0.0
-0.08728235 0.02260587 0.0
-0.09077544 0.01807636 0.0
-0.09331960 0.01318423 0.0
-0.09486875 0.00803122 0.0
-0.09539495 0.00272004 0.0
-0.09488842 -0.00264603 0.0
-0.09335759 -0.00796335 0.0
-0.09082916 -0.01312805 0.0
-0.08734816 -0.01803639 0.0
-0.08297795 -0.02258513 0.0
-0.07780008 -0.02667233 0.0
-0.07191407 -0.03019855 0.0
-0.06543683 -0.03306848 0.0
-0.05850174 -0.03519321 0.0
-0.05125728 -0.03649318 0.0
-0.04386510 -0.03690173 0.0
-0.03649756 -0.03636949 0.0
-0.02933454 -0.03486947 0.0
-0.02255994 -0.03240294 0.0
-0.01635777 -0.02900596 0.0
-0.01090840 -0.02475661 0.0
-0.00638541 -0.01978253 0.0
-0.00295396 -0.01426847 0.0
-0.00077145 -0.00846306 0.0
0.00000000 -0.00359939 0.0
-0.00088799 0.00359890 0.0
-0.00338767 0.01099864 0.0
-0.00729560 0.01821678 0.0
-0.01241567 0.02493619 0.0
-0.01854734 0.03090731 0.0
-0.02548599 0.03594490 0.0
-0.03302475 0.03992253 0.0
-0.04095743 0.04276576 0.0
-0.04908184 0.04444483 0.0
-0.05720320 0.04496739 0.0
-0.06513716 0.04437155 0.0
-0.07271248 0.04271966 0.0
-0.07977305 0.04009271 0.0
-0.08617942 0.03658556 0.0
-0.09180982 0.03230305 0.0
-0.09656078 0.02735683 0.0
-0.10034745 0.02186302 0.0
-0.10310368 0.01594046 0.0
-0.10478204 0.00970958 0.0
-0.10535374 0.00329174 0.0
-0.10480864 -0.00319114 0.0
-0.10315523 -0.00961676 0.0
-0.10042075 -0.01586252 0.0
-0.09665135 -0.02180579 0.0
-0.09191217 -0.02732431 0.0
-0.08628748 -0.03229702 0.0
-0.07988062 -0.03660541 0.0
-0.07281370 -0.04013540 0.0
-0.06522699 -0.04277993 0.0
-0.05727781 -0.04444236 0.0
-0.04913896 -0.04504058 0.0
-0.04099651 -0.04451194 0.0
-0.03304702 -0.04281897 0.0
-0.02549427 -0.03995569 0.0
-0.01854571 -0.03595453 0.0
-0.01240885 -0.03089347 0.0
-0.00728823 -0.02490315 0.0
-0.00338334 -0.01817336 0.0
-0.00088822 -0.01095818 0.0
0.00000000 -0.00461141 0.0
-0.00100339 0.00461128 0.0
-0.00381544 0.01381069 0.0
-0.00819837 0.02259971 0.0
-0.01391979 0.03065761 0.0
-0.02074431 0.03773183 0.0
-0.02843526 0.04363586 0.0
-0.03675737 0.04824464 0.0
-0.04547991 0.05148830 0.0
-0.05438002 0.05334495 0.0
-0.06324593 0.05383329 0.0
-0.07187967 0.05300529 0.0
-0.08009937 0.05093936 0.0
-0.08774085 0.04773420 0.0
-0.09465880 0.04350351 0.0
-0.10072730 0.03837155 0.0
-0.10584010 0.03246963 0.0
-0.10991056 0.02593348 0.0
-0.11287145 0.01890135 0.0
-0.11467466 0.01151280 0.0
-0.11529104 0.00390812 0.0
-0.11471017 -0.00377201 0.0
-0.11294044 -0.01138649 0.0
-0.11000913 -0.01879384 0.0
-0.10596269 -0.02585223 0.0
-0.10086709 -0.03241990 0.0
-0.09480817 -0.03835594 0.0
-0.08789190 -0.04352169 0.0
-0.08024446 -0.04778283 0.0
-0.07201205 -0.05101234 0.0
-0.06336019 -0.05309422 0.0
-0.05447255 -0.05392822 0.0
-0.04554915 -0.05343533 0.0
-0.03680398 -0.05156414 0.0
-0.02846193 -0.04829774 0.0
-0.02075544 -0.04366102 0.0
-0.01392088 -0.03772803 0.0
-0.00819512 -0.03062891 0.0
-0.00381270 -0.02255578 0.0
-0.00100394 -0.01376694 0.0
0.00000000 -0.00573943 0.0
-0.00111970 0.00573970 0.0
-0.00424916 0.01694016 0.0
-0.00911561 0.02746616 0.0
-0.01544987 0.03699187 0.0
-0.02298061 0.04526256 0.0
-0.03143768 0.05209293 0.0
-0.04055583 0.05736279 0.0
-0.05007836 0.06101083 0.0
-0.05976072 0.06302730 0.0
-0.06937352 0.06344610 0.0
-0.07870511 0.06233688 0.0
-0.08756333 0.05979758 0.0
-0.09577674 0.05594761 0.0
-0.10319514 0.05092191 0.0
-0.10968970 0.04486610 0.0
-0.11515260 0.03793254 0.0
-0.11949660 0.03027748 0.0
-0.12265437 0.02205911 0.0
-0.12457792 0.01343635 0.0
-0.12523814 0.00456834 0.0
-0.12462454 -0.00438561 0.0
-0.12274515 -0.01326587 0.0
-0.11962677 -0.02191221 0.0
-0.11531536 -0.03016365 0.0
-0.10987663 -0.03785864 0.0
-0.10339675 -0.04483582 0.0
-0.09598305 -0.05093539 0.0
-0.08776456 -0.05600132 0.0
-0.07889235 -0.05988455 0.0
-0.06953937 -0.06244720 0.0
-0.05989982 -0.06356777 0.0
-0.05018783 -0.06314732 0.0
-0.04063544 -0.06111654 0.0
-0.03148981 -0.05744337 0.0
-0.02300990 -0.05214092 0.0
-0.01546261 -0.04527532 0.0
-0.00911875 -0.03697277 0.0
-0.00424910 -0.02742542 0.0
-0.00112088 -0.01689517 0.0
0.00000000 -0.00698711 0.0
-0.00123887 0.00698783 0.0
-0.00469517 0.02039645 0.0
-0.01005890 0.03282990 0.0
-0.01702258 0.04395555 0.0
-0.02527717 0.05351716 0.0
-0.03451725 0.06133301 0.0
-0.04444584 0.06729138 0.0
-0.05477893 0.07134392 0.0
-0.06524930 0.07349766 0.0
-0.07560956 0.07380636 0.0
-0.08563447 0.07236179 0.0
-0.09512223 0.06928533 0.0
-0.10389508 0.06472046 0.0
-0.11179926 0.05882609 0.0
-0.11870440 0.05177124 0.0
-0.12450260 0.04373074 0.0
-0.12910731 0.03488220 0.0
-0.13245227 0.02540407 0.0
-0.13449046 0.01547454 0.0
-0.13519338 0.00527126 0.0
-0.13455057 -0.00502842 0.0
-0.13256953 -0.01524692 0.0
-0.12927595 -0.02520579 0.0
-0.12471438 -0.03472522 0.0
-0.11894906 -0.04362396 0.0
-0.11206510 -0.05171978 0.0
-0.10416970 -0.05883079 0.0
-0.09539326 -0.06477775 0.0
-0.08589042 -0.06938739 0.0
-0.07584055 -0.07249708 0.0
-0.06544778 -0.07396054 0.0
-0.05494025 -0.07365484 0.0
-0.04456855 -0.07148824 0.0
-0.03460315 -0.06740877 0.0
-0.02533104 -0.06141304 0.0
-0.01705148 -0.05355488 0.0
-0.01007120 -0.04395305 0.0
-0.00469914 -0.03279748 0.0
-0.00124105 -0.02035325 0.0
0.00000000 -0.00835993 0.0
-0.00136262 0.00836117 0.0
-0.00515920 0.02419303 0.0
-0.01103887 0.03870956 0.0
-0.01865316 0.05156984 0.0
-0.02765283 0.06251683 0.0
-0.03769484 0.07137501 0.0
-0.04844858 0.07804513 0.0
-0.05960129 0.08249663 0.0
-0.07086226 0.08475863 0.0
-0.08196596 0.08491007 0.0
-0.09267400 0.08306982 0.0
-0.10277588 0.07938722 0.0
-0.11208896 0.07403354 0.0
-0.12045755 0.06719468 0.0
-0.12775152 0.05906521 0.0
-0.13386460 0.04984381 0.0
-0.13871258 0.03973018 0.0
-0.14223159 0.02892308 0.0
-0.14437662 0.01761956 0.0
-0.14512038 0.00601503 0.0
-0.14445268 -0.00569612 0.0
-0.14238019 -0.01731940 0.0
-0.13892686 -0.02865912 0.0
-0.13413470 -0.03951738 0.0
-0.12806510 -0.04969356 0.0
-0.12080043 -0.05898445 0.0
-0.11244592 -0.06718530 0.0
-0.10313154 -0.07409212 0.0
-0.09301379 -0.07950515 0.0
-0.08227704 -0.08323382 0.0
-0.07113438 -0.08510320 0.0
-0.05982755 -0.08496167 0.0
-0.04862588 -0.08268991 0.0
-0.03782408 -0.07821057 0.0
-0.02773870 -0.07149841 0.0
-0.01870350 -0.06259008 0.0
-0.01106360 -0.05159296 0.0
-0.00516879 -0.03869229 0.0
-0.00136627 -0.02415578 0.0
0.00000000 -0.00986503 0.0
-0.00149249 0.00986684 0.0
-0.00564645 0.02834699 0.0
-0.01206506 0.04512817 0.0
-0.02035513 0.05985991 0.0
-0.03012377 0.07228547 0.0
-0.04098740 0.08223864 0.0
-0.05257955 0.08963728 0.0
-0.06455720 0.09447428 0.0
-0.07660554 0.09680697 0.0
-0.08844105 0.09674558 0.0
-0.09981307 0.09444183 0.0
-0.11050390 0.09007805 0.0
-0.12032791 0.08385755 0.0
-0.12912964 0.07599641 0.0
-0.13678144 0.06671701 0.0
-0.14318086 0.05624323 0.0
-0.14824796 0.04479729 0.0
-0.15192291 0.03259803 0.0
-0.15416391 0.01986056 0.0
-0.15494564 0.00679676 0.0
-0.15425838 -0.00638338 0.0
-0.15210775 -0.01947003 0.0
-0.14851511 -0.03225176 0.0
-0.14351871 -0.04451378 0.0
-0.13717536 -0.05603691 0.0
-0.12956271 -0.06659710 0.0
-0.12078177 -0.07596624 0.0
-0.11095976 -0.08391413 0.0
-0.10025280 -0.09021210 0.0
-0.08884832 -0.09463830 0.0
-0.07696684 -0.09698468 0.0
-0.06486281 -0.09706570 0.0
-0.05282423 -0.09472849 0.0
-0.04117073 -0.08986407 0.0
-0.03025010 -0.08241905 0.0
-0.02043297 -0.07240720 0.0
-0.01210601 -0.05991992 0.0
-0.00566353 -0.04513476 0.0
-0.00149813 -0.02832117 0.0
0.00000000 -0.01151106 0.0
-0.00162988 0.01151350 0.0
-0.00616167 0.03287878 0.0
-0.01314614 0.05211264 0.0
-0.02214036 0.06885413 0.0
-0.03270340 0.08284850 0.0
-0.04440753 0.09394278 0.0
-0.05684781 0.10207755 0.0
-0.06964944 0.10727591 0.0
-0.08247306 0.10963059 0.0
-0.09501776 0.10929028 0.0
-0.10702206 0.10644614 0.0
-0.11826323 0.10131922 0.0
-0.12855519 0.09414951 0.0
-0.13774553 0.08518674 0.0
-0.14571192 0.07468340 0.0
-0.15235839 0.06288970 0.0
-0.15761166 0.05005056 0.0
-0.16141788 0.03640425 0.0
-0.16373990 0.02218258 0.0
-0.16455529 0.00761214 0.0
-0.16385510 -0.00708356 0.0
-0.16164355 -0.02168159 0.0
-0.15793853 -0.03595677 0.0
-0.15277302 -0.04967929 0.0
-0.14619728 -0.06261265 0.0
-0.13828174 -0.07451264 0.0
-0.12912048 -0.08512749 0.0
-0.11883504 -0.09419957 0.0
-0.10757827 -0.10146888 0.0
-0.09553797 -0.10667860 0.0
-0.08293992 -0.10958272 0.0
-0.07004982 -0.10995581 0.0
-0.05717372 -0.10760459 0.0
-0.04465676 -0.10238103 0.0
-0.03287956 -0.09419624 0.0
-0.02225250 -0.08303426 0.0
-0.01320760 -0.06896483 0.0
-0.00618838 -0.05215398 0.0
-0.00163813 -0.03287142 0.0
0.00000000 -0.01330812 0.0
-0.00177611 0.01331128 0.0
-0.00670937 0.03781204 0.0
-0.01429009 0.05969336 0.0
-0.02401928 0.07858332 0.0
-0.03540242 0.09423165 0.0
-0.04796329 0.10650365 0.0
-0.06125542 0.11536967 0.0
-0.07487071 0.12089120 0.0
-0.08844515 0.12320503 0.0
-0.10166159 0.12250672 0.0
-0.11424995 0.11903449 0.0
-0.12598536 0.11305464 0.0
-0.13668475 0.10484890 0.0
-0.14620233 0.09470432 0.0
-0.15442461 0.08290569 0.0
-0.16126538 0.06973047 0.0
-0.16666085 0.05544603 0.0
-0.17056549 0.04030888 0.0
-0.17294852 0.02456561 0.0
-0.17379144 0.00845506 0.0
-0.17308643 -0.00778857 0.0
-0.17083598 -0.02393204 0.0
-0.16705345 -0.03973931 0.0
-0.16176482 -0.05496792 0.0
-0.15501144 -0.06936604 0.0
-0.14685363 -0.08267045 0.0
-0.13737518 -0.09460595 0.0
-0.12668829 -0.10488646 0.0
-0.11493885 -0.11321832 0.0
-0.10231154 -0.11930592 0.0
-0.08903433 -0.12285993 0.0
-0.07538188 -0.12360825 0.0
-0.06167721 -0.12130926 0.0
-0.04829106 -0.11576718 0.0
-0.03563862 -0.10684868 0.0
-0.02417320 -0.09449968 0.0
-0.01437683 -0.07876119 0.0
-0.00674812 -0.05978270 0.0
-0.00178769 -0.03783185 0.0
0.00000000 -0.01526785 0.0
-0.00193256 0.01527182 0.0
-0.00729408 0.04317355 0.0
-0.01550464 0.06790392 0.0
-0.02600130 0.08907998 0.0
-0.03822913 0.10645949 0.0
-0.05165815 0.11993267 0.0
-0.06579695 0.12950847 0.0
-0.08020267 0.13529692 0.0
-0.09448700 0.13748936 0.0
-0.10831846 0.13633818 0.0
-0.12142151 0.13213755 0.0
-0.13357314 0.12520627 0.0
-0.14459765 0.11587341 0.0
-0.15436038 0.10446705 0.0
-0.16276103 0.09130634 0.0
-0.16972703 0.07669648 0.0
-0.17520750 0.06092649 0.0
-0.17916790 0.04426928 0.0
-0.18158583 0.02698355 0.0
-0.18244790 0.00931713 0.0
-0.18174789 -0.00848858 0.0
-0.17948615 -0.02619378 0.0
-0.17567035 -0.04355510 0.0
-0.17031754 -0.06032073 0.0
-0.16345740 -0.07622618 0.0
-0.15513674 -0.09099111 0.0
-0.14542503 -0.10431765 0.0
-0.13442072 -0.11589077 0.0
-0.12225808 -0.12538097 0.0
-0.10911408 -0.13244992 0.0
-0.09521481 -0.13675920 0.0
-0.08084066 -0.13798241 0.0
-0.06632957 -0.13582034 0.0
-0.05207763 -0.13001913 0.0
-0.03853616 -0.12039015 0.0
-0.02620504 -0.10683081 0.0
-0.01562189 -0.08934434 0.0
-0.00734752 -0.06805706 0.0
-0.00194824 -0.04323112 0.0
0.00000000 -0.01740358 0.0
-0.00210072 0.01740847 0.0
-0.00792066 0.04899349 0.0
-0.01679776 0.07678103 0.0
-0.02809536 0.10037757 0.0
-0.04118979 0.11955391 0.0
-0.05549100 0.13423389 0.0