# vtk DataFile Version 4.0
2D velocity field
ASCII
DATASET STRUCTURED_GRID
DIMENSIONS 40 40 1
POINTS 1600 float
0.00000000 0.00000000 1.0
1.00000000 0.00000000 1.0
2.00000000 0.00000000 1.0
3.00000000 0.00000000 1.0
4.00000000 0.00000000 1.0
5.00000000 0.00000000 1.0
6.00000000 0.00000000 1.0
7.00000000 0.00000000 1.0
8.00000000 0.00000000 1.0
9.00000000 0.00000000 1.0
10.00000000 0.00000000 1.0
11.00000000 0.00000000 1.0
12.00000000 0.00000000 1.0
13.00000000 0.00000000 1.0
14.00000000 0.00000000 1.0
15.00000000 0.00000000 1.0
16.00000000 0.00000000 1.0
17.00000000 0.00000000 1.0
18.00000000 0.00000000 1.0
19.00000000 0.00000000 1.0
20.00000000 0.00000000 1.0
21.00000000 0.00000000 1.0
22.00000000 0.00000000 1.0
23.00000000 0.00000000 1.0
24.00000000 0.00000000 1.0
25.00000000 0.00000000 1.0
26.00000000 0.00000000 1.0
27.00000000 0.00000000 1.0
28.00000000 0.00000000 1.0
29.00000000 0.00000000 1.0
30.00000000 0.00000000 1.0
31.00000000 0.00000000 1.0
32.00000000 0.00000000 1.0
33.00000000 0.00000000 1.0
34.00000000 0.00000000 1.0
35.00000000 0.00000000 1.0
36.00000000 0.00000000 1.0
37.00000000 0.00000000 1.0
38.00000000 0.00000000 1.0
39.00000000 0.00000000 1.0
0.00000000 1.00000000 1.0
1.00000000 1.00000000 1.0
2.00000000 1.00000000 1.0
3.00000000 1.00000000 1.0
4.00000000 1.00000000 1.0
5.00000000 1.00000000 1.0
6.00000000 1.00000000 1.0
7.00000000 1.00000000 1.0
8.00000000 1.00000000 1.0
9.00000000 1.00000000 1.0
10.00000000 1.00000000 1.0
11.00000000 1.00000000 1.0
12.00000000 1.00000000 1.0
13.00000000 1.00000000 1.0
14.00000000 1.00000000 1.0
15.00000000 1.00000000 1.0
16.00000000 1.00000000 1.0
17.00000000 1.00000000 1.0
18.00000000 1.00000000 1.0
19.00000000 1.00000000 1.0
20.00000000 1.00000000 1.0
21.00000000 1.00000000 1.0
22.00000000 1.00000000 1.0
23.00000000 1.00000000 1.0
24.00000000 1.00000000 1.0
25.00000000 1.00000000 1.0
26.00000000 1.00000000 1.0
27.00000000 1.00000000 1.0
28.00000000 1.00000000 1.0
29.00000000 1.00000000 1.0
30.00000000 1.00000000 1.0
31.00000000 1.00000000 1.0
32.00000000 1.00000000 1.0
33.00000000 1.00000000 1.0
34.00000000 1.00000000 1.0
35.00000000 1.00000000 1.0
36.00000000 1.00000000 1.0
37.00000000 1.00000000 1.0
38.00000000 1.00000000 1.0
39.00000000 1.00000000 1.0
0.00000000 2.00000000 1.0
1.00000000 2.00000000 1.0
2.00000000 2.00000000 1.0
3.00000000 2.00000000 1.0
4.00000000 2.00000000 1.0
5.00000000 2.00000000 1.0
6.00000000 2.00000000 1.0
7.00000000 2.00000000 1.0
8.00000000 2.00000000 1.0
9.00000000 2.00000000 1.0
10.00000000 2.00000000 1.0
11.00000000 2.00000000 1.0
12.00000000 2.00000000 1.0
13.00000000 2.00000000 1.0
14.00000000 2.00000000 1.0
15.00000000 2.00000000 1.0
16.00000000 2.00000000 1.0
17.00000000 2.00000000 1.0
18.00000000 2.00000000 1.0
19.00000000 2.00000000 1.0
20.00000000 2.00000000 1.0
21.00000000 2.00000000 1.0
22.00000000 2.00000000 1.0
23.00000000 2.00000000 1.0
24.00000000 2.00000000 1.0
25.00000000 2.00000000 1.0
26.00000000 2.00000000 1.0
27.00000000 2.00000000 1.0
28.00000000 2.00000000 1.0
29.00000000 2.00000000 1.0
30.00000000 2.00000000 1.0
31.00000000 2.00000000 1.0
32.00000000 2.00000000 1.0
33.00000000 2.00000000 1.0
34.00000000 2.00000000 1.0
35.00000000 2.00000000 1.0
36.00000000 2.00000000 1.0
37.00000000 2.00000000 1.0
38.00000000 2.00000000 1.0
39.00000000 2.00000000 1.0
0.00000000 3.00000000 1.0
1.00000000 3.00000000 1.0
2.00000000 3.00000000 1.0
3.00000000 3.00000000 1.0
4.00000000 3.00000000 1.0
5.00000000 3.00000000 1.0
6.00000000 3.00000000 1.0
7.00000000 3.00000000 1.0
8.00000000 3.00000000 1.0
9.00000000 3.00000000 1.0
10.00000000 3.00000000 1.0
11.00000000 3.00000000 1.0
12.00000000 3.00000000 1.0
13.00000000 3.00000000 1.0
14.00000000 3.00000000 1.0
15.00000000 3.00000000 1.0
16.00000000 3.00000000 1.0
17.00000000 3.00000000 1.0
18.00000000 3.00000000 1.0
19.00000000 3.00000000 1.0
20.00000000 3.00000000 1.0
21.00000000 3.00000000 1.0
22.00000000 3.00000000 1.0
23.00000000 3.00000000 1.0
24.00000000 3.00000000 1.0
25.00000000 3.00000000 1.0
26.00000000 3.00000000 1.0
27.00000000 3.00000000 1.0
28.00000000 3.00000000 1.0
29.00000000 3.00000000 1.0
30.00000000 3.00000000 1.0
31.00000000 3.00000000 1.0
32.00000000 3.00000000 1.0
33.00000000 3.00000000 1.0
34.00000000 3.00000000 1.0
35.00000000 3.00000000 1.0
36.00000000 3.00000000 1.0
37.00000000 3.00000000 1.0
38.00000000 3.00000000 1.0
39.00000000 3.00000000 1.0
0.00000000 4.00000000 1.0
1.00000000 4.00000000 1.0
2.00000000 4.00000000 1.0
3.00000000 4.00000000 1.0
4.00000000 4.00000000 1.0
5.00000000 4.00000000 1.0
6.00000000 4.00000000 1.0
7.00000000 4.00000000 1.0
8.00000000 4.00000000 1.0
9.00000000 4.00000000 1.0
10.00000000 4.00000000 1.0
11.00000000 4.00000000 1.0
12.00000000 4.00000000 1.0
13.00000000 4.00000000 1.0
14.00000000 4.00000000 1.0
15.00000000 4.00000000 1.0
16.00000000 4.00000000 1.0
17.00000000 4.00000000 1.0
18.00000000 4.00000000 1.0
19.00000000 4.00000000 1.0
20.00000000 4.00000000 1.0
21.00000000 4.00000000 1.0
22.00000000 4.00000000 1.0
23.00000000 4.00000000 1.0
24.00000000 4.00000000 1.0
25.00000000 4.00000000 1.0
26.00000000 4.00000000 1.0
27.00000000 4.00000000 1.0
28.00000000 4.00000000 1.0
29.00000000 4.00000000 1.0
30.00000000 4.00000000 1.0
31.00000000 4.00000000 1.0
32.00000000 4.00000000 1.0
33.00000000 4.00000000 1.0
34.00000000 4.00000000 1.0
35.00000000 4.00000000 1.0
36.00000000 4.00000000 1.0
37.00000000 4.00000000 1.0
38.00000000 4.00000000 1.0
39.00000000 4.00000000 1.0
0.00000000 5.00000000 1.0
1.00000000 5.00000000 1.0
2.00000000 5.00000000 1.0
3.00000000 5.00000000 1.0
4.00000000 5.00000000 1.0
5.00000000 5.00000000 1.0
6.00000000 5.00000000 1.0
7.00000000 5.00000000 1.0
8.00000000 5.00000000 1.0
9.00000000 5.00000000 1.0
10.00000000 5.00000000 1.0
11.00000000 5.00000000 1.0
12.00000000 5.00000000 1.0
13.00000000 5.00000000 1.0
14.00000000 5.00000000 1.0
15.00000000 5.00000000 1.0
16.00000000 5.00000000 1.0
17.00000000 5.00000000 1.0
18.00000000 5.00000000 1.0
19.00000000 5.00000000 1.0
20.00000000 5.00000000 1.0
21.00000000 5.00000000 1.0
22.00000000 5.00000000 1.0
23.00000000 5.00000000 1.0
24.00000000 5.00000000 1.0
25.00000000 5.00000000 1.0
26.00000000 5.00000000 1.0
27.00000000 5.00000000 1.0
28.00000000 5.00000000 1.0
29.00000000 5.00000000 1.0
30.00000000 5.00000000 1.0
31.00000000 5.00000000 1.0
32.00000000 5.00000000 1.0
33.00000000 5.00000000 1.0
34.00000000 5.00000000 1.0
35.00000000 5.00000000 1.0
36.00000000 5.00000000 1.0
37.00000000 5.00000000 1.0
38.00000000 5.00000000 1.0
39.00000000 5.00000000 1.0
0.00000000 6.00000000 1.0
1.00000000 6.00000000 1.0
2.00000000 6.00000000 1.0
3.00000000 6.00000000 1.0
4.00000000 6.00000000 1.0
5.00000000 6.00000000 1.0
6.00000000 6.00000000 1.0
7.00000000 6.00000000 1.0
8.00000000 6.00000000 1.0
9.00000000 6.00000000 1.0
10.00000000 6.00000000 1.0
11.00000000 6.00000000 1.0
12.00000000 6.00000000 1.0
13.00000000 6.00000000 1.0
14.00000000 6.00000000 1.0
15.00000000 6.00000000 1.0
16.00000000 6.00000000 1.0
17.00000000 6.00000000 1.0
18.00000000 6.00000000 1.0
19.00000000 6.00000000 1.0
20.00000000 6.00000000 1.0
21.00000000 6.00000000 1.0
22.00000000 6.00000000 1.0
23.00000000 6.00000000 1.0
24.00000000 6.00000000 1.0
25.00000000 6.00000000 1.0
26.00000000 6.00000000 1.0
27.00000000 6.00000000 1.0
28.00000000 6.00000000 1.0
29.00000000 6.00000000 1.0
30.00000000 6.00000000 1.0
31.00000000 6.00000000 1.0
32.00000000 6.00000000 1.0
33.00000000 6.00000000 1.0
34.00000000 6.00000000 1.0
35.00000000 6.00000000 1.0
36.00000000 6.00000000 1.0
37.00000000 6.00000000 1.0
38.00000000 6.00000000 1.0
39.00000000 6.00000000 1.0
0.00000000 7.00000000 1.0
1.00000000 7.00000000 1.0
2.00000000 7.00000000 1.0
3.00000000 7.00000000 1.0
4.00000000 7.00000000 1.0
5.00000000 7.00000000 1.0
6.00000000 7.00000000 1.0
7.00000000 7.00000000 1.0
8.00000000 7.00000000 1.0
9.00000000 7.00000000 1.0
10.00000000 7.00000000 1.0
11.00000000 7.00000000 1.0
12.00000000 7.00000000 1.0
13.00000000 7.00000000 1.0
14.00000000 7.00000000 1.0
15.00000000 7.00000000 1.0
16.00000000 7.00000000 1.0
17.00000000 7.00000000 1.0
18.00000000 7.00000000 1.0
19.00000000 7.00000000 1.0
20.00000000 7.00000000 1.0
21.00000000 7.00000000 1.0
22.00000000 7.00000000 1.0
23.00000000 7.00000000 1.0
24.00000000 7.00000000 1.0
25.00000000 7.00000000 1.0
26.00000000 7.00000000 1.0
27.00000000 7.00000000 1.0
28.00000000 7.00000000 1.0
29.00000000 7.00000000 1.0
30.00000000 7.00000000 1.0
31.00000000 7.00000000 1.0
32.00000000 7.00000000 1.0
33.00000000 7.00000000 1.0
34.00000000 7.00000000 1.0
35.00000000 7.00000000 1.0
36.00000000 7.00000000 1.0
37.00000000 7.00000000 1.0
38.00000000 7.00000000 1.0
39.00000000 7.00000000 1.0
0.00000000 8.00000000 1.0
1.00000000 8.00000000 1.0
2.00000000 8.00000000 1.0
3.00000000 8.00000000 1.0
4.00000000 8.00000000 1.0
5.00000000 8.00000000 1.0
6.00000000 8.00000000 1.0
7.00000000 8.00000000 1.0
8.00000000 8.00000000 1.0
9.00000000 8.00000000 1.0
10.00000000 8.00000000 1.0
11.00000000 8.00000000 1.0
12.00000000 8.00000000 1.0
13.00000000 8.00000000 1.0
14.00000000 8.00000000 1.0
15.00000000 8.00000000 1.0
16.00000000 8.00000000 1.0
17.00000000 8.00000000 1.0
18.00000000 8.00000000 1.0
19.00000000 8.00000000 1.0
20.00000000 8.00000000 1.0
21.00000000 8.00000000 1.0
22.00000000 8.00000000 1.0
23.00000000 8.00000000 1.0
24.00000000 8.00000000 1.0
25.00000000 8.00000000 1.0
26.00000000 8.00000000 1.0
27.00000000 8.00000000 1.0
28.00000000 8.00000000 1.0
29.00000000 8.00000000 1.0
30.00000000 8.00000000 1.0
31.00000000 8.00000000 1.0
32.00000000 8.00000000 1.0
33.00000000 8.00000000 1.0
34.00000000 8.00000000 1.0
35.00000000 8.00000000 1.0
36.00000000 8.00000000 1.0
37.00000000 8.00000000 1.0
38.00000000 8.00000000 1.0
39.00000000 8.00000000 1.0
0.00000000 9.00000000 1.0
1.00000000 9.00000000 1.0
2.00000000 9.00000000 1.0
3.00000000 9.00000000 1.0
4.00000000 9.00000000 1.0
5.00000000 9.00000000 1.0
6.00000000 9.00000000 1.0
7.00000000 9.00000000 1.0
8.00000000 9.00000000 1.0
[...]
POINT_DATA 1600
VECTORS velocity double
0.00000000 0.00003085 0.0
0.00000026 -0.00003098 0.0
0.00000051 -0.00001022 0.0
0.00000066 0.00005206 0.0
0.00000071 0.00012693 0.0
0.00000068 0.00019966 0.0
0.00000057 0.00026345 0.0
0.00000042 0.00031532 0.0
0.00000023 0.00035419 0.0
0.00000002 0.00037991 0.0
-0.00000019 0.00039286 0.0
-0.00000041 0.00039374 0.0
-0.00000062 0.00038341 0.0
-0.00000082 0.00036290 0.0
-0.00000100 0.00033330 0.0
-0.00000117 0.00029576 0.0
-0.00000130 0.00025147 0.0
-0.00000141 0.00020162 0.0
-0.00000149 0.00014745 0.0
-0.00000154 0.00009017 0.0
-0.00000155 0.00003100 0.0
-0.00000154 -0.00002883 0.0
-0.00000149 -0.00008808 0.0
-0.00000141 -0.00014552 0.0
-0.00000130 -0.00019991 0.0
-0.00000117 -0.00025000 0.0
-0.00000101 -0.00029455 0.0
-0.00000082 -0.00033232 0.0
-0.00000062 -0.00036210 0.0
-0.00000041 -0.00038271 0.0
-0.00000019 -0.00039304 0.0
0.00000003 -0.00039207 0.0
0.00000023 -0.00037893 0.0
0.00000042 -0.00035294 0.0
0.00000057 -0.00031375 0.0
0.00000068 -0.00026155 0.0
0.00000071 -0.00019748 0.0
0.00000066 -0.00012454 0.0
0.00000050 -0.00004961 0.0
0.00000026 0.00001251 0.0
0.00000000 0.00009406 0.0
0.00010565 -0.00009465 0.0
0.00008100 0.00002903 0.0
-0.00015116 0.00029983 0.0
-0.00062512 0.00061783 0.0
-0.00133587 0.00092878 0.0
-0.00225722 0.00120452 0.0
-0.00335214 0.00143110 0.0
-0.00457856 0.00160231 0.0
-0.00589286 0.00171637 0.0
-0.00725190 0.00177411 0.0
-0.00861437 0.00177803 0.0
-0.00994167 0.00173172 0.0
-0.01119847 0.00163946 0.0
-0.01235310 0.00150605 0.0
-0.01337784 0.00133660 0.0
-0.01424902 0.00113643 0.0
-0.01494720 0.00091098 0.0
-0.01545717 0.00066578 0.0
-0.01576802 0.00040639 0.0
-0.01587312 0.00013840 0.0
-0.01577017 -0.00013257 0.0
-0.01546122 -0.00040091 0.0
-0.01495264 -0.00066096 0.0
-0.01425517 -0.00090707 0.0
-0.01338390 -0.00113356 0.0
-0.01235828 -0.00133480 0.0
-0.01120203 -0.00150522 0.0
-0.00994306 -0.00163937 0.0
-0.00861327 -0.00173204 0.0
-0.00724829 -0.00177838 0.0
-0.00588705 -0.00177405 0.0
-0.00457116 -0.00171551 0.0
-0.00334400 -0.00160032 0.0
-0.00224935 -0.00142778 0.0
-0.00132926 -0.00119986 0.0
-0.00062064 -0.00092297 0.0
-0.00014934 -0.00061129 0.0
0.00008015 -0.00029322 0.0
0.00010286 -0.00002331 0.0
0.00000000 0.00009873 0.0
0.00003191 -0.00009985 0.0
-0.00020735 0.00026829 0.0
-0.00081110 0.00090358 0.0
-0.00182058 0.00162731 0.0
-0.00322656 0.00233476 0.0
-0.00498798 0.00296595 0.0
-0.00704485 0.00348796 0.0
-0.00932683 0.00388430 0.0
-0.01175916 0.00414870 0.0
-0.01426653 0.00428148 0.0
-0.01677581 0.00428731 0.0
-0.01921791 0.00417382 0.0
-0.02152910 0.00395065 0.0
-0.02365190 0.00362884 0.0
-0.02553569 0.00322039 0.0
-0.02713718 0.00273792 0.0
-0.02842064 0.00219444 0.0
-0.02935810 0.00160323 0.0
-0.02992943 0.00097772 0.0
-0.03012244 0.00033142 0.0
-0.02993293 -0.00032209 0.0
-0.02936467 -0.00096917 0.0
-0.02842946 -0.00159617 0.0
-0.02714713 -0.00218940 0.0
-0.02554549 -0.00273521 0.0
-0.02366022 -0.00322007 0.0
-0.02153476 -0.00363067 0.0
-0.01922000 -0.00395414 0.0
-0.01677380 -0.00417824 0.0
-0.01426040 -0.00429178 0.0
-0.01174940 -0.00428505 0.0
-0.00931442 -0.00415049 0.0
-0.00703115 -0.00388359 0.0
-0.00497460 -0.00348433 0.0
-0.00321509 -0.00295938 0.0
-0.00181235 -0.00232571 0.0
-0.00080687 -0.00161677 0.0
-0.00020703 -0.00089306 0.0
0.00002951 -0.00025986 0.0
0.00000000 -0.00003002 0.0
-0.00010401 0.00002862 0.0
-0.00065215 0.00081643 0.0
-0.00170805 0.00195948 0.0
-0.00329768 0.00321694 0.0
-0.00539971 0.00443679 0.0
-0.00795903 0.00552526 0.0
-0.01089801 0.00642694 0.0
-0.01412548 0.00711177 0.0
-0.01754348 0.00756670 0.0
-0.02105232 0.00779032 0.0
-0.02455427 0.00778926 0.0
-0.02795630 0.00757585 0.0
-0.03117206 0.00716640 0.0
-0.03412325 0.00658004 0.0
-0.03674072 0.00583786 0.0
-0.03896509 0.00496228 0.0
-0.04074725 0.00397660 0.0
-0.04204870 0.00290468 0.0
-0.04284171 0.00177073 0.0
-0.04310949 0.00059920 0.0
-0.04284625 -0.00058534 0.0
-0.04205722 -0.00175820 0.0
-0.04075871 -0.00289468 0.0
-0.03897807 -0.00397004 0.0
-0.03675357 -0.00495970 0.0
-0.03413429 -0.00583935 0.0
-0.03117975 -0.00658522 0.0
-0.02795946 -0.00717443 0.0
-0.02455220 -0.00758550 0.0
-0.02104494 -0.00779904 0.0
-0.01753137 -0.00779863 0.0
-0.01410982 -0.00757204 0.0
-0.01088049 -0.00711292 0.0
-0.00794162 -0.00642319 0.0
-0.00538442 -0.00551658 0.0
-0.00328618 -0.00442395 0.0
-0.00170134 -0.00320161 0.0
-0.00065023 -0.00194417 0.0
-0.00010566 -0.00080442 0.0
0.00000000 -0.00030575 0.0
-0.00025397 0.00030425 0.0
-0.00114689 0.00170935 0.0
-0.00269291 0.00350550 0.0
-0.00488748 0.00541151 0.0
-0.00768839 0.00723770 0.0
-0.01102307 0.00885995 0.0
-0.01479681 0.01020068 0.0
-0.01890052 0.01121548 0.0
-0.02321738 0.01188356 0.0
-0.02762821 0.01220114 0.0
-0.03201573 0.01217678 0.0
-0.03626784 0.01182796 0.0
-0.04028010 0.01117866 0.0
-0.04395754 0.01025749 0.0
-0.04721604 0.00909636 0.0
-0.04998323 0.00772948 0.0
-0.05219919 0.00619256 0.0
-0.05381685 0.00452234 0.0
-0.05480233 0.00275621 0.0
-0.05513508 0.00093195 0.0
-0.05480801 -0.00091240 0.0
-0.05382756 -0.00273865 0.0
-0.05221369 -0.00450854 0.0
-0.04999984 -0.00618389 0.0
-0.04723279 -0.00772676 0.0
-0.04397239 -0.00909975 0.0
-0.04029118 -0.01026643 0.0
-0.03627368 -0.01119193 0.0
-0.03201540 -0.01184378 0.0
-0.02762151 -0.01219294 0.0
-0.02320485 -0.01221528 0.0
-0.01888345 -0.01189344 0.0
-0.01477707 -0.01121930 0.0
-0.01100293 -0.01019733 0.0
-0.00767019 -0.00884933 0.0
-0.00487324 -0.00722090 0.0
-0.00268396 -0.00539088 0.0
-0.00114348 -0.00348466 0.0
-0.00025501 -0.00169288 0.0
0.00000000 -0.00072486 0.0
-0.00040048 0.00072339 0.0
-0.00164375 0.00295262 0.0
-0.00369112 0.00555287 0.0
-0.00649971 0.00822010 0.0
-0.00999972 0.01073771 0.0
-0.01409685 0.01295708 0.0
-0.01867758 0.01478140 0.0
-0.02361520 0.01615310 0.0
-0.02877578 0.01704414 0.0
-0.03402336 0.01744872 0.0
-0.03922429 0.01737771 0.0
-0.04425079 0.01685447 0.0
-0.04898371 0.01591157 0.0
-0.05331459 0.01458837 0.0
-0.05714728 0.01292905 0.0
-0.06039900 0.01098119 0.0
-0.06300115 0.00879471 0.0
-0.06489986 0.00642105 0.0
-0.06605630 0.00391265 0.0
-0.06644693 0.00132258 0.0
-0.06606363 -0.00129571 0.0
-0.06491376 -0.00388853 0.0
-0.06302016 -0.00640214 0.0
-0.06042113 -0.00878292 0.0
-0.05717020 -0.01097769 0.0
-0.05333585 -0.01293409 0.0
-0.04900103 -0.01460125 0.0
-0.04426229 -0.01593067 0.0
-0.03922871 -0.01687735 0.0
-0.03402024 -0.01740141 0.0
-0.02876553 -0.01746999 0.0
-0.02359907 -0.01705990 0.0
-0.01865758 -0.01616079 0.0
-0.01407550 -0.01477942 0.0
-0.00997968 -0.01294515 0.0
-0.00648344 -0.01071715 0.0
-0.00368036 -0.00819396 0.0
-0.00163912 -0.00552590 0.0
-0.00040104 -0.00293096 0.0
0.00000000 -0.00127905 0.0
-0.00053860 0.00127772 0.0
-0.00212488 0.00453890 0.0
-0.00467094 0.00809892 0.0
-0.00809313 0.01164229 0.0
-0.01228997 0.01493456 0.0
-0.01714181 0.01780891 0.0
-0.02251384 0.02015344 0.0
-0.02826076 0.02190002 0.0
-0.03423171 0.02301509 0.0
-0.04027505 0.02349206 0.0
-0.04624257 0.02334523 0.0
-0.05199300 0.02260490 0.0
-0.05739485 0.02131342 0.0
-0.06232861 0.01952213 0.0
-0.06668837 0.01728881 0.0
-0.07038306 0.01467588 0.0
-0.07333721 0.01174887 0.0
-0.07549159 0.00857543 0.0
-0.07680350 0.00522457 0.0
-0.07724706 0.00176614 0.0
-0.07681332 -0.00172945 0.0
-0.07551033 -0.00519152 0.0
-0.07336315 -0.00854931 0.0
-0.07041381 -0.01173226 0.0
-0.06672112 -0.01467038 0.0
-0.06236036 -0.01729485 0.0
-0.05742275 -0.01953887 0.0
-0.05201460 -0.02133882 0.0
-0.04625611 -0.02263584 0.0
-0.04027965 -0.02337787 0.0
-0.03422749 -0.02352216 0.0
-0.02824885 -0.02303854 0.0
-0.02249628 -0.02191336 0.0
-0.01712132 -0.02015438 0.0
-0.01226961 -0.01779685 0.0
-0.00807582 -0.01491094 0.0
-0.00465896 -0.01161081 0.0
-0.00211933 -0.00806554 0.0
-0.00053880 -0.00451149 0.0
0.00000000 -0.00196026 0.0
-0.00066835 0.00195915 0.0
-0.00258695 0.00645750 0.0
-0.00562400 0.01113597 0.0
-0.00965556 0.01567385 0.0
-0.01454641 0.01982541 0.0
-0.02014886 0.02341136 0.0
-0.02630454 0.02630912 0.0
-0.03284797 0.02844345 0.0
-0.03961070 0.02977782 0.0
-0.04642560 0.03030696 0.0
-0.05313072 0.03005034 0.0
-0.05957261 0.02904679 0.0
-0.06560909 0.02734990 0.0
-0.07111134 0.02502438 0.0
-0.07596553 0.02214301 0.0
-0.08007396 0.01878431 0.0
-0.08335583 0.01503074 0.0
-0.08574777 0.01096737 0.0
-0.08720416 0.00668096 0.0
-0.08769733 0.00225931 0.0
-0.08721766 -0.00220912 0.0
-0.08577367 -0.00663551 0.0
-0.08339205 -0.01093094 0.0
-0.08011759 -0.01500672 0.0
-0.07601311 -0.01877486 0.0
-0.07115915 -0.02214882 0.0
-0.06565347 -0.02504454 0.0
-0.05961034 -0.02738195 0.0
-0.05315929 -0.02908689 0.0
-0.04644350 -0.03009366 0.0
-0.03961757 -0.03034809 0.0
-0.03284466 -0.02981145 0.0
-0.02629305 -0.02846497 0.0
-0.02013208 -0.02631535 0.0
-0.01452779 -0.02340114 0.0
-0.00963860 -0.01980014 0.0
-0.00561163 -0.01563778 0.0
-0.00258086 -0.01109631 0.0
-0.00066829 -0.00642406 0.0
0.00000000 -0.00276236 0.0
-0.00079153 0.00276152 0.0
-0.00303322 0.00869919 0.0
-0.00655401 0.01465676 0.0
-0.01119105 0.02031089 0.0
-0.01677460 0.02540896 0.0
-0.02312707 0.02976383 0.0
-0.03006454 0.03324660 0.0
-0.03739972 0.03577862 0.0
-0.04494556 0.03732367 0.0
-0.05251907 0.03788047 0.0
-0.05994479 0.03747606 0.0
-0.06705785 0.03615985 0.0
-0.07370647 0.03399852 0.0
-0.07975389 0.03107180 0.0
-0.08507979 0.02746890 0.0
-0.08958124 0.02328576 0.0
-0.09317341 0.01862290 0.0
-0.09578987 0.01358383 0.0
-0.09738288 0.00827397 0.0
-0.09792347 0.00279990 0.0
-0.09740152 -0.00273107 0.0
-0.09582582 -0.00821121 0.0
-0.09322412 -0.01353264 0.0
-0.08964313 -0.01858770 0.0
-0.08514854 -0.02326945 0.0
-0.07982480 -0.02747256 0.0
-0.07377482 -0.03109451 0.0
-0.06711935 -0.03403743 0.0
-0.05999591 -0.03621033 0.0
-0.05255741 -0.03753215 0.0
-0.04497006 -0.03793545 0.0
-0.03741075 -0.03737075 0.0
-0.03006392 -0.03581180 0.0
-0.02311780 -0.03326146 0.0
-0.01676054 -0.02975840 0.0
-0.01117634 -0.02538434 0.0
-0.00654236 -0.02027176 0.0
-0.00302712 -0.01461154 0.0
-0.00079135 -0.00865982 0.0
0.00000000 -0.00368167 0.0
-0.00091048 0.00368115 0.0
-0.00346971 0.01125841 0.0
-0.00747037 0.01865742 0.0
-0.01271204 0.02555256 0.0
-0.01899005 0.03168697 0.0
-0.02609560 0.03686938 0.0
-0.03381752 0.04096852 0.0
-0.04194518 0.04390628 0.0
-0.05027183 0.04565031 0.0
-0.05859799 0.04620664 0.0
-0.06673469 0.04561276 0.0
-0.07450606 0.04393121 0.0
-0.08175155 0.04124401 0.0
-0.08832753 0.03764778 0.0
-0.09410841 0.03324978 0.0
-0.09898731 0.02816467 0.0
-0.10287649 0.02251208 0.0
-0.10570749 0.01641484 0.0
-0.10743119 0.00999766 0.0
-0.10801777 0.00338648 0.0
-0.10745674 -0.00329209 0.0
-0.10575697 -0.00991098 0.0
-0.10294674 -0.01634287 0.0
-0.09907390 -0.02246055 0.0
-0.09420594 -0.02813742 0.0
-0.08843003 -0.03324846 0.0
-0.08185294 -0.03767160 0.0
-0.07460065 -0.04128972 0.0
-0.06681761 -0.04399337 0.0
-0.05866561 -0.04568415 0.0
-0.05032208 -0.04627898 0.0
-0.04197775 -0.04571508 0.0
-0.03383384 -0.04395570 0.0
-0.02609871 -0.04099659 0.0
-0.01898420 -0.03687292 0.0
-0.01270206 -0.03166648 0.0
-0.00746091 -0.02551291 0.0
-0.00346428 -0.01860817 0.0
-0.00091037 -0.01121373 0.0
0.00000000 -0.00471695 0.0
-0.00102755 0.00471680 0.0
-0.00390320 0.01413407 0.0
-0.00838465 0.02313887 0.0
-0.01423454 0.03140245 0.0
-0.02121279 0.03866522 0.0
-0.02907816 0.04473475 0.0
-0.03759076 0.04948113 0.0
-0.04651522 0.05283074 0.0
-0.05562397 0.05475906 0.0
-0.06470050 0.05528316 0.0
-0.07354214 0.05445439 0.0
-0.08196240 0.05235148 0.0
-0.08979270 0.04907432 0.0
-0.09688356 0.04473864 0.0
-0.10310525 0.03947147 0.0
-0.10834817 0.03340759 0.0
-0.11252281 0.02668673 0.0
-0.11555965 0.01945167 0.0
-0.11740891 0.01184693 0.0
-0.11804041 0.00401798 0.0
-0.11744341 -0.00388909 0.0
-0.11562665 -0.01172774 0.0
-0.11261844 -0.01935108 0.0
-0.10846692 -0.02661206 0.0
-0.10324039 -0.03336395 0.0
-0.09702756 -0.03946130 0.0
-0.08993778 -0.04476138 0.0
-0.08210108 -0.04912643 0.0
-0.07366781 -0.05242663 0.0
-0.06480795 -0.05454401 0.0
-0.05570979 -0.05537715 0.0
-0.04657807 -0.05484679 0.0
-0.03763151 -0.05290226 0.0
-0.02909970 -0.04952840 0.0
-0.02121971 -0.04475291 0.0
-0.01423245 -0.03865375 0.0
-0.00837929 -0.03136606 0.0
-0.00389936 -0.02308810 0.0
-0.00102776 -0.01408533 0.0
0.00000000 -0.00586922 0.0
-0.00114488 0.00586948 0.0
-0.00434042 0.01732960 0.0
-0.00930881 0.02810726 0.0
-0.01577548 0.03786911 0.0
-0.02346400 0.04635375 0.0
-0.03209937 0.05337012 0.0
-0.04141152 0.05879327 0.0
-0.05113898 0.06255820 0.0
-0.06103242 0.06465250 0.0
-0.07085775 0.06510849 0.0
-0.08039860 0.06399525 0.0
-0.08945831 0.06141118 0.0
-0.09786107 0.05747708 0.0
-0.10545262 0.05233019 0.0
-0.11210041 0.04611926 0.0
-0.11769335 0.03900053 0.0
-0.12214139 0.03113477 0.0
-0.12537498 0.02268525 0.0
-0.12734449 0.01381644 0.0
-0.12801984 0.00469333 0.0
-0.12739020 -0.00451874 0.0
-0.12546394 -0.01365400 0.0
-0.12226888 -0.02254615 0.0
-0.11785261 -0.03102833 0.0
-0.11228309 -0.03893347 0.0
-0.10564932 -0.04609507 0.0
-0.09806191 -0.05234878 0.0
-0.08965365 -0.05753469 0.0
-0.08057967 -0.06150061 0.0
-0.07101730 -0.06410638 0.0
-0.06116530 -0.06522915 0.0
-0.05124248 -0.06476961 0.0
-0.04148562 -0.06265912 0.0
-0.03214666 -0.05886737 0.0
-0.02348929 -0.05341028 0.0
-0.01578517 -0.04635787 0.0
-0.00930992 -0.03784131 0.0
-0.00433929 -0.02805873 0.0
-0.00114573 -0.01727889 0.0
0.00000000 -0.00714152 0.0
-0.00126444 0.00714225 0.0
-0.00478763 0.02085280 0.0
-0.01025427 0.03357390 0.0
-0.01735120 0.04496604 0.0
-0.02576410 0.05476665 0.0
-0.03518249 0.06278851 0.0
-0.04530453 0.06891531 0.0
-0.05584140 0.07309507 0.0
-0.06652114 0.07533224 0.0
-0.07709172 0.07567907 0.0
-0.08732332 0.07422685 0.0
-0.09700972 0.07109759 0.0
-0.10596899 0.06643634 0.0
-0.11404343 0.06040463 0.0
-0.12109909 0.05317493 0.0
-0.12702492 0.04492635 0.0
-0.13173170 0.03584155 0.0
-0.13515102 0.02610457 0.0
-0.13723430 0.01589972 0.0
-0.13795209 0.00541112 0.0
-0.13729363 -0.00517720 0.0
-0.13526674 -0.01568089 0.0
-0.13189808 -0.02591481 0.0
-0.12723375 -0.03569266 0.0
-0.12134016 -0.04482706 0.0
-0.11430511 -0.05313012 0.0
-0.10623897 -0.06041493 0.0
-0.09727574 -0.06649792 0.0
-0.08757398 -0.07120237 0.0
-0.07731728 -0.07436308 0.0
-0.06671422 -0.07583221 0.0
-0.05599750 -0.07548632 0.0
-0.04542239 -0.07323424 0.0
-0.03526408 -0.06902567 0.0
-0.02581436 -0.06286000 0.0
-0.01737734 -0.05479489 0.0
-0.01026471 -0.04495394 0.0
-0.00479060 -0.03353284 0.0
-0.00126631 -0.02080318 0.0
0.00000000 -0.00853870 0.0
-0.00138792 0.00853995 0.0
-0.00525052 0.02471540 0.0
-0.01123153 0.03955491 0.0
-0.01897674 0.05271124 0.0
-0.02813156 0.06392147 0.0
-0.03834791 0.07300486 0.0
-0.04929035 0.07985775 0.0
-0.06064138 0.08444610 0.0
-0.07210570 0.08679656 0.0
-0.08341328 0.08698666 0.0
-0.09432135 0.08513492 0.0
-0.10461521 0.08139145 0.0
-0.11410822 0.07592935 0.0
-0.12264096 0.06893737 0.0
-0.13007994 0.06061390 0.0
-0.13631589 0.05116231 0.0
-0.14126210 0.04078776 0.0
-0.14485267 0.02969514 0.0
-0.14704111 0.01808816 0.0
-0.14779926 0.00616927 0.0
-0.14711660 -0.00585985 0.0
-0.14500014 -0.01779735 0.0
-0.14147472 -0.02944024 0.0
-0.13658381 -0.04058356 0.0
-0.13039085 -0.05102002 0.0
-0.12298074 -0.06054023 0.0
-0.11446170 -0.06893397 0.0
-0.10496709 -0.07599253 0.0
-0.09465712 -0.08151234 0.0
-0.08372020 -0.08530000 0.0
-0.07237362 -0.08717879 0.0
-0.06086353 -0.08699642 0.0
-0.04946377 -0.08463400 0.0
-0.03847366 -0.08001578 0.0
-0.02821447 -0.07311919 0.0
-0.01902477 -0.06398459 0.0
-0.01125467 -0.05272403 0.0
-0.00525925 -0.03952826 0.0
-0.00139129 -0.02467114 0.0
0.00000000 -0.01006726 0.0
-0.00151685 0.01006909 0.0
-0.00573428 0.02893282 0.0
-0.01225012 0.04607076 0.0
-0.02066556 0.06112668 0.0
-0.03058249 0.07383840 0.0
-0.04161243 0.08403480 0.0
-0.05338424 0.09162956 0.0
-0.06555038 0.09661225 0.0
-0.07779168 0.09903786 0.0
-0.08982035 0.09901533 0.0
-0.10138161 0.09669619 0.0
-0.11225387 0.09226370 0.0
-0.12224773 0.08592321 0.0
-0.13120428 0.07789393 0.0
-0.13899276 0.06840238 0.0
-0.14550795 0.05767749 0.0
-0.15066757 0.04594738 0.0
-0.15440992 0.03343749 0.0
-0.15669184 0.02037009 0.0
-0.15748720 0.00696463 0.0
-0.15678600 -0.00656105 0.0
-0.15459413 -0.01998922 0.0
-0.15093379 -0.03310058 0.0
-0.14584459 -0.04567277 0.0
-0.13938520 -0.05747940 0.0
-0.13163561 -0.06828982 0.0
-0.12269960 -0.07786998 0.0
-0.11270753 -0.08598461 0.0
-0.10181897 -0.09240090 0.0
-0.09022509 -0.09689388 0.0
-0.07815035 -0.09925352 0.0
-0.06585335 -0.09929342 0.0
-0.05362634 -0.09686101 0.0
-0.04179337 -0.09184876 0.0
-0.03070672 -0.08420584 0.0
-0.02074172 -0.07394959 0.0
-0.01228988 -0.06117587 0.0
-0.00575069 -0.04606745 0.0
-0.00152229 -0.02889955 0.0
0.00000000 -0.01173522 0.0
-0.00165266 0.01173770 0.0
-0.00624368 0.03352384 0.0
-0.01331876 0.05314584 0.0
-0.02242962 0.07023754 0.0
-0.03313040 0.08453918 0.0
-0.04498879 0.09589319 0.0
-0.05759545 0.10423621 0.0
-0.07057139 0.10958820 0.0
-0.08357322 0.11203968 0.0
-0.09629610 0.11173821 0.0
-0.10847479 0.10887488 0.0
-0.11988296 0.10367187 0.0
-0.13033115 0.09637140 0.0
-0.13966380 0.08722658 0.0
-0.14775576 0.07649434 0.0
-0.15450855 0.06443028 0.0
-0.15984678 0.05128561 0.0
-0.16371491 0.03730562 0.0
-0.16607458 0.02272975 0.0
-0.16690260 0.00779265 0.0
-0.16618977 -0.00727387 0.0
-0.16394057 -0.02223842 0.0
-0.16017363 -0.03686752 0.0
-0.15492314 -0.05092325 0.0
-0.14824106 -0.06416149 0.0
-0.14019991 -0.07633097 0.0
-0.13089627 -0.08717362 0.0
-0.12045451 -0.09642637 0.0
-0.10903062 -0.10382479 0.0
-0.09681579 -0.10910871 0.0
-0.08403942 -0.11202989 0.0
-0.07097096 -0.11236188 0.0
-0.05792043 -0.10991154 0.0
-0.04523702 -0.10453217 0.0
-0.03330558 -0.09613727 0.0
-0.02254088 -0.08471429 0.0
-0.01337954 -0.07033721 0.0
-0.00626999 -0.05317700 0.0
-0.00166079 -0.03350875 0.0
0.00000000 -0.01355208 0.0
-0.00179669 0.01355528 0.0
-0.00678332 0.03851047 0.0
-0.01444559 0.06080810 0.0
-0.02427961 0.08007156 0.0
-0.03578640 0.09604597 0.0
-0.04848556 0.10859236 0.0
-0.06192668 0.11767733 0.0
-0.07569790 0.12335942 0.0
-0.08943159 0.12577337 0.0
-0.10280709 0.12511371 0.0
-0.11555100 0.12161879 0.0
-0.12743527 0.11555614 0.0
-0.13827382 0.10720995 0.0
-0.14791810 0.09687087 0.0
-0.15625214 0.08482838 0.0
-0.16318752 0.07136566 0.0
-0.16865860 0.05675669 0.0
-0.17261838 0.04126540 0.0
-0.17503500 0.02514638 0.0
-0.17588931 0.00864695 0.0
-0.17517326 -0.00798992 0.0
-0.17288956 -0.02452213 0.0
-0.16905221 -0.04070487 0.0
-0.16368827 -0.05628719 0.0
-0.15684053 -0.07100922 0.0
-0.14857118 -0.08460032 0.0
-0.13896616 -0.09677863 0.0
-0.12814017 -0.10725235 0.0
-0.11624185 -0.11572311 0.0
-0.10345887 -0.12189169 0.0
-0.09002238 -0.12546638 0.0
-0.07621042 -0.12617384 0.0
-0.06234949 -0.12377247 0.0
-0.04881400 -0.11806766 0.0
-0.03602296 -0.10892832 0.0
-0.02443364 -0.09630360 0.0
-0.01453230 -0.08023855 0.0
-0.00682200 -0.06088731 0.0
-0.00180824 -0.03852251 0.0
0.00000000 -0.01552891 0.0
-0.00195034 0.01553294 0.0
-0.00735786 0.04391799 0.0
-0.01563860 0.06908885 0.0
-0.02622539 0.09065835 0.0
-0.03855942 0.10838000 0.0
-0.05210710 0.12214003 0.0
-0.06637363 0.13194386 0.0
-0.08091292 0.13789871 0.0
-0.09533355 0.14019400 0.0
-0.10930107 0.13908123 0.0
-0.12253710 0.13485481 0.0
-0.13481591 0.12783495 0.0
-0.14595927 0.11835331 0.0
-0.15583018 0.10674178 0.0
-0.16432622 0.09332442 0.0
-0.17137300 0.07841243 0.0
-0.17691804 0.06230173 0.0
-0.18092558 0.04527294 0.0
-0.18337231 0.02759311 0.0
-0.18424429 0.00951893 0.0
-0.18353510 -0.00869911 0.0
-0.18124527 -0.02681196 0.0
-0.17738302 -0.04456712 0.0
-0.17196627 -0.06170394 0.0
-0.16502593 -0.07794956 0.0
-0.15661037 -0.09301589 0.0
-0.14679086 -0.10659814 0.0
-0.13566794 -0.11837527 0.0
-0.12337820 -0.12801285 0.0
-0.11010114 -0.13516875 0.0
-0.09606555 -0.13950197 0.0
-0.08155468 -0.14068471 0.0
-0.06690948 -0.13841767 0.0
-0.05252917 -0.13244797 0.0
-0.03886836 -0.12258912 0.0
-0.02643040 -0.10874157 0.0
-0.01575657 -0.09091238 0.0
-0.00741161 -0.06923226 0.0
-0.00196611 -0.04396801 0.0
0.00000000 -0.01767850 0.0
-0.00211516 0.01768346 0.0
-0.00797233 0.04977516 0.0
-0.01690618 0.07802269 0.0
-0.02827656 0.10202873 0.0
-0.04145668 0.12156012 0.0
-0.05585358 0.13653694 0.0