# vtk DataFile Version 4.0
2D velocity field
ASCII
DATASET STRUCTURED_GRID
DIMENSIONS 40 40 1
POINTS 1600 float
0.00000000 0.00000000 1.0
1.00000000 0.00000000 1.0
2.00000000 0.00000000 1.0
3.00000000 0.00000000 1.0
4.00000000 0.00000000 1.0
5.00000000 0.00000000 1.0
6.00000000 0.00000000 1.0
7.00000000 0.00000000 1.0
8.00000000 0.00000000 1.0
9.00000000 0.00000000 1.0
10.00000000 0.00000000 1.0
11.00000000 0.00000000 1.0
12.00000000 0.00000000 1.0
13.00000000 0.00000000 1.0
14.00000000 0.00000000 1.0
15.00000000 0.00000000 1.0
16.00000000 0.00000000 1.0
17.00000000 0.00000000 1.0
18.00000000 0.00000000 1.0
19.00000000 0.00000000 1.0
20.00000000 0.00000000 1.0
21.00000000 0.00000000 1.0
22.00000000 0.00000000 1.0
23.00000000 0.00000000 1.0
24.00000000 0.00000000 1.0
25.00000000 0.00000000 1.0
26.00000000 0.00000000 1.0
27.00000000 0.00000000 1.0
28.00000000 0.00000000 1.0
29.00000000 0.00000000 1.0
30.00000000 0.00000000 1.0
31.00000000 0.00000000 1.0
32.00000000 0.00000000 1.0
33.00000000 0.00000000 1.0
34.00000000 0.00000000 1.0
35.00000000 0.00000000 1.0
36.00000000 0.00000000 1.0
37.00000000 0.00000000 1.0
38.00000000 0.00000000 1.0
39.00000000 0.00000000 1.0
0.00000000 1.00000000 1.0
1.00000000 1.00000000 1.0
2.00000000 1.00000000 1.0
3.00000000 1.00000000 1.0
4.00000000 1.00000000 1.0
5.00000000 1.00000000 1.0
6.00000000 1.00000000 1.0
7.00000000 1.00000000 1.0
8.00000000 1.00000000 1.0
9.00000000 1.00000000 1.0
10.00000000 1.00000000 1.0
11.00000000 1.00000000 1.0
12.00000000 1.00000000 1.0
13.00000000 1.00000000 1.0
14.00000000 1.00000000 1.0
15.00000000 1.00000000 1.0
16.00000000 1.00000000 1.0
17.00000000 1.00000000 1.0
18.00000000 1.00000000 1.0
19.00000000 1.00000000 1.0
20.00000000 1.00000000 1.0
21.00000000 1.00000000 1.0
22.00000000 1.00000000 1.0
23.00000000 1.00000000 1.0
24.00000000 1.00000000 1.0
25.00000000 1.00000000 1.0
26.00000000 1.00000000 1.0
27.00000000 1.00000000 1.0
28.00000000 1.00000000 1.0
29.00000000 1.00000000 1.0
30.00000000 1.00000000 1.0
31.00000000 1.00000000 1.0
32.00000000 1.00000000 1.0
33.00000000 1.00000000 1.0
34.00000000 1.00000000 1.0
35.00000000 1.00000000 1.0
36.00000000 1.00000000 1.0
37.00000000 1.00000000 1.0
38.00000000 1.00000000 1.0
39.00000000 1.00000000 1.0
0.00000000 2.00000000 1.0
1.00000000 2.00000000 1.0
2.00000000 2.00000000 1.0
3.00000000 2.00000000 1.0
4.00000000 2.00000000 1.0
5.00000000 2.00000000 1.0
6.00000000 2.00000000 1.0
7.00000000 2.00000000 1.0
8.00000000 2.00000000 1.0
9.00000000 2.00000000 1.0
10.00000000 2.00000000 1.0
11.00000000 2.00000000 1.0
12.00000000 2.00000000 1.0
13.00000000 2.00000000 1.0
14.00000000 2.00000000 1.0
15.00000000 2.00000000 1.0
16.00000000 2.00000000 1.0
17.00000000 2.00000000 1.0
18.00000000 2.00000000 1.0
19.00000000 2.00000000 1.0
20.00000000 2.00000000 1.0
21.00000000 2.00000000 1.0
22.00000000 2.00000000 1.0
23.00000000 2.00000000 1.0
24.00000000 2.00000000 1.0
25.00000000 2.00000000 1.0
26.00000000 2.00000000 1.0
27.00000000 2.00000000 1.0
28.00000000 2.00000000 1.0
29.00000000 2.00000000 1.0
30.00000000 2.00000000 1.0
31.00000000 2.00000000 1.0
32.00000000 2.00000000 1.0
33.00000000 2.00000000 1.0
34.00000000 2.00000000 1.0
35.00000000 2.00000000 1.0
36.00000000 2.00000000 1.0
37.00000000 2.00000000 1.0
38.00000000 2.00000000 1.0
39.00000000 2.00000000 1.0
0.00000000 3.00000000 1.0
1.00000000 3.00000000 1.0
2.00000000 3.00000000 1.0
3.00000000 3.00000000 1.0
4.00000000 3.00000000 1.0
5.00000000 3.00000000 1.0
6.00000000 3.00000000 1.0
7.00000000 3.00000000 1.0
8.00000000 3.00000000 1.0
9.00000000 3.00000000 1.0
10.00000000 3.00000000 1.0
11.00000000 3.00000000 1.0
12.00000000 3.00000000 1.0
13.00000000 3.00000000 1.0
14.00000000 3.00000000 1.0
15.00000000 3.00000000 1.0
16.00000000 3.00000000 1.0
17.00000000 3.00000000 1.0
18.00000000 3.00000000 1.0
19.00000000 3.00000000 1.0
20.00000000 3.00000000 1.0
21.00000000 3.00000000 1.0
22.00000000 3.00000000 1.0
23.00000000 3.00000000 1.0
24.00000000 3.00000000 1.0
25.00000000 3.00000000 1.0
26.00000000 3.00000000 1.0
27.00000000 3.00000000 1.0
28.00000000 3.00000000 1.0
29.00000000 3.00000000 1.0
30.00000000 3.00000000 1.0
31.00000000 3.00000000 1.0
32.00000000 3.00000000 1.0
33.00000000 3.00000000 1.0
34.00000000 3.00000000 1.0
35.00000000 3.00000000 1.0
36.00000000 3.00000000 1.0
37.00000000 3.00000000 1.0
38.00000000 3.00000000 1.0
39.00000000 3.00000000 1.0
0.00000000 4.00000000 1.0
1.00000000 4.00000000 1.0
2.00000000 4.00000000 1.0
3.00000000 4.00000000 1.0
4.00000000 4.00000000 1.0
5.00000000 4.00000000 1.0
6.00000000 4.00000000 1.0
7.00000000 4.00000000 1.0
8.00000000 4.00000000 1.0
9.00000000 4.00000000 1.0
10.00000000 4.00000000 1.0
11.00000000 4.00000000 1.0
12.00000000 4.00000000 1.0
13.00000000 4.00000000 1.0
14.00000000 4.00000000 1.0
15.00000000 4.00000000 1.0
16.00000000 4.00000000 1.0
17.00000000 4.00000000 1.0
18.00000000 4.00000000 1.0
19.00000000 4.00000000 1.0
20.00000000 4.00000000 1.0
21.00000000 4.00000000 1.0
22.00000000 4.00000000 1.0
23.00000000 4.00000000 1.0
24.00000000 4.00000000 1.0
25.00000000 4.00000000 1.0
26.00000000 4.00000000 1.0
27.00000000 4.00000000 1.0
28.00000000 4.00000000 1.0
29.00000000 4.00000000 1.0
30.00000000 4.00000000 1.0
31.00000000 4.00000000 1.0
32.00000000 4.00000000 1.0
33.00000000 4.00000000 1.0
34.00000000 4.00000000 1.0
35.00000000 4.00000000 1.0
36.00000000 4.00000000 1.0
37.00000000 4.00000000 1.0
38.00000000 4.00000000 1.0
39.00000000 4.00000000 1.0
0.00000000 5.00000000 1.0
1.00000000 5.00000000 1.0
2.00000000 5.00000000 1.0
3.00000000 5.00000000 1.0
4.00000000 5.00000000 1.0
5.00000000 5.00000000 1.0
6.00000000 5.00000000 1.0
7.00000000 5.00000000 1.0
8.00000000 5.00000000 1.0
9.00000000 5.00000000 1.0
10.00000000 5.00000000 1.0
11.00000000 5.00000000 1.0
12.00000000 5.00000000 1.0
13.00000000 5.00000000 1.0
14.00000000 5.00000000 1.0
15.00000000 5.00000000 1.0
16.00000000 5.00000000 1.0
17.00000000 5.00000000 1.0
18.00000000 5.00000000 1.0
19.00000000 5.00000000 1.0
20.00000000 5.00000000 1.0
21.00000000 5.00000000 1.0
22.00000000 5.00000000 1.0
23.00000000 5.00000000 1.0
24.00000000 5.00000000 1.0
25.00000000 5.00000000 1.0
26.00000000 5.00000000 1.0
27.00000000 5.00000000 1.0
28.00000000 5.00000000 1.0
29.00000000 5.00000000 1.0
30.00000000 5.00000000 1.0
31.00000000 5.00000000 1.0
32.00000000 5.00000000 1.0
33.00000000 5.00000000 1.0
34.00000000 5.00000000 1.0
35.00000000 5.00000000 1.0
36.00000000 5.00000000 1.0
37.00000000 5.00000000 1.0
38.00000000 5.00000000 1.0
39.00000000 5.00000000 1.0
0.00000000 6.00000000 1.0
1.00000000 6.00000000 1.0
2.00000000 6.00000000 1.0
3.00000000 6.00000000 1.0
4.00000000 6.00000000 1.0
5.00000000 6.00000000 1.0
6.00000000 6.00000000 1.0
7.00000000 6.00000000 1.0
8.00000000 6.00000000 1.0
9.00000000 6.00000000 1.0
10.00000000 6.00000000 1.0
11.00000000 6.00000000 1.0
12.00000000 6.00000000 1.0
13.00000000 6.00000000 1.0
14.00000000 6.00000000 1.0
15.00000000 6.00000000 1.0
16.00000000 6.00000000 1.0
17.00000000 6.00000000 1.0
18.00000000 6.00000000 1.0
19.00000000 6.00000000 1.0
20.00000000 6.00000000 1.0
21.00000000 6.00000000 1.0
22.00000000 6.00000000 1.0
23.00000000 6.00000000 1.0
24.00000000 6.00000000 1.0
25.00000000 6.00000000 1.0
26.00000000 6.00000000 1.0
27.00000000 6.00000000 1.0
28.00000000 6.00000000 1.0
29.00000000 6.00000000 1.0
30.00000000 6.00000000 1.0
31.00000000 6.00000000 1.0
32.00000000 6.00000000 1.0
33.00000000 6.00000000 1.0
34.00000000 6.00000000 1.0
35.00000000 6.00000000 1.0
36.00000000 6.00000000 1.0
37.00000000 6.00000000 1.0
38.00000000 6.00000000 1.0
39.00000000 6.00000000 1.0
0.00000000 7.00000000 1.0
1.00000000 7.00000000 1.0
2.00000000 7.00000000 1.0
3.00000000 7.00000000 1.0
4.00000000 7.00000000 1.0
5.00000000 7.00000000 1.0
6.00000000 7.00000000 1.0
7.00000000 7.00000000 1.0
8.00000000 7.00000000 1.0
9.00000000 7.00000000 1.0
10.00000000 7.00000000 1.0
11.00000000 7.00000000 1.0
12.00000000 7.00000000 1.0
13.00000000 7.00000000 1.0
14.00000000 7.00000000 1.0
15.00000000 7.00000000 1.0
16.00000000 7.00000000 1.0
17.00000000 7.00000000 1.0
18.00000000 7.00000000 1.0
19.00000000 7.00000000 1.0
20.00000000 7.00000000 1.0
21.00000000 7.00000000 1.0
22.00000000 7.00000000 1.0
23.00000000 7.00000000 1.0
24.00000000 7.00000000 1.0
25.00000000 7.00000000 1.0
26.00000000 7.00000000 1.0
27.00000000 7.00000000 1.0
28.00000000 7.00000000 1.0
29.00000000 7.00000000 1.0
30.00000000 7.00000000 1.0
31.00000000 7.00000000 1.0
32.00000000 7.00000000 1.0
33.00000000 7.00000000 1.0
34.00000000 7.00000000 1.0
35.00000000 7.00000000 1.0
36.00000000 7.00000000 1.0
37.00000000 7.00000000 1.0
38.00000000 7.00000000 1.0
39.00000000 7.00000000 1.0
0.00000000 8.00000000 1.0
1.00000000 8.00000000 1.0
2.00000000 8.00000000 1.0
3.00000000 8.00000000 1.0
4.00000000 8.00000000 1.0
5.00000000 8.00000000 1.0
6.00000000 8.00000000 1.0
7.00000000 8.00000000 1.0
8.00000000 8.00000000 1.0
9.00000000 8.00000000 1.0
10.00000000 8.00000000 1.0
11.00000000 8.00000000 1.0
12.00000000 8.00000000 1.0
13.00000000 8.00000000 1.0
14.00000000 8.00000000 1.0
15.00000000 8.00000000 1.0
16.00000000 8.00000000 1.0
17.00000000 8.00000000 1.0
18.00000000 8.00000000 1.0
19.00000000 8.00000000 1.0
20.00000000 8.00000000 1.0
21.00000000 8.00000000 1.0
22.00000000 8.00000000 1.0
23.00000000 8.00000000 1.0
24.00000000 8.00000000 1.0
25.00000000 8.00000000 1.0
26.00000000 8.00000000 1.0
27.00000000 8.00000000 1.0
28.00000000 8.00000000 1.0
29.00000000 8.00000000 1.0
30.00000000 8.00000000 1.0
31.00000000 8.00000000 1.0
32.00000000 8.00000000 1.0
33.00000000 8.00000000 1.0
34.00000000 8.00000000 1.0
35.00000000 8.00000000 1.0
36.00000000 8.00000000 1.0
37.00000000 8.00000000 1.0
38.00000000 8.00000000 1.0
39.00000000 8.00000000 1.0
0.00000000 9.00000000 1.0
1.00000000 9.00000000 1.0
2.00000000 9.00000000 1.0
3.00000000 9.00000000 1.0
4.00000000 9.00000000 1.0
5.00000000 9.00000000 1.0
6.00000000 9.00000000 1.0
7.00000000 9.00000000 1.0
8.00000000 9.00000000 1.0
[...]
POINT_DATA 1600
VECTORS velocity double
0.00000000 0.00003263 0.0
0.00000027 -0.00003277 0.0
0.00000052 -0.00001194 0.0
0.00000069 0.00005221 0.0
0.00000074 0.00012959 0.0
0.00000071 0.00020491 0.0
0.00000060 0.00027105 0.0
0.00000044 0.00032493 0.0
0.00000025 0.00036539 0.0
0.00000004 0.00039227 0.0
-0.00000018 0.00040593 0.0
-0.00000041 0.00040707 0.0
-0.00000063 0.00039660 0.0
-0.00000083 0.00037555 0.0
-0.00000102 0.00034504 0.0
-0.00000118 0.00030627 0.0
-0.00000132 0.00026046 0.0
-0.00000144 0.00020887 0.0
-0.00000152 0.00015275 0.0
-0.00000157 0.00009338 0.0
-0.00000159 0.00003205 0.0
-0.00000157 -0.00002997 0.0
-0.00000152 -0.00009139 0.0
-0.00000144 -0.00015091 0.0
-0.00000133 -0.00020724 0.0
-0.00000119 -0.00025908 0.0
-0.00000102 -0.00030514 0.0
-0.00000083 -0.00034413 0.0
-0.00000063 -0.00037480 0.0
-0.00000041 -0.00039593 0.0
-0.00000018 -0.00040639 0.0
0.00000004 -0.00040513 0.0
0.00000025 -0.00039125 0.0
0.00000045 -0.00036408 0.0
0.00000060 -0.00032328 0.0
0.00000071 -0.00026906 0.0
0.00000074 -0.00020263 0.0
0.00000069 -0.00012713 0.0
0.00000052 -0.00004971 0.0
0.00000026 0.00001424 0.0
0.00000000 0.00009926 0.0
0.00010889 -0.00009988 0.0
0.00008572 0.00002578 0.0
-0.00015128 0.00030480 0.0
-0.00063818 0.00063347 0.0
-0.00137025 0.00095543 0.0
-0.00232069 0.00124136 0.0
-0.00345139 0.00147669 0.0
-0.00471894 0.00165489 0.0
-0.00607824 0.00177401 0.0
-0.00748462 0.00183485 0.0
-0.00889529 0.00183990 0.0
-0.01027015 0.00179281 0.0
-0.01157250 0.00169799 0.0
-0.01276938 0.00156036 0.0
-0.01383191 0.00138520 0.0
-0.01473543 0.00117801 0.0
-0.01545963 0.00094444 0.0
-0.01598864 0.00069026 0.0
-0.01631103 0.00042124 0.0
-0.01641990 0.00014325 0.0
-0.01631285 -0.00013786 0.0
-0.01599202 -0.00041620 0.0
-0.01546409 -0.00068586 0.0
-0.01474030 -0.00094094 0.0
-0.01383641 -0.00117552 0.0
-0.01277275 -0.00138374 0.0
-0.01157404 -0.00155981 0.0
-0.01026938 -0.00169811 0.0
-0.00889195 -0.00179325 0.0
-0.00747879 -0.00184026 0.0
-0.00607029 -0.00183470 0.0
-0.00470958 -0.00177295 0.0
-0.00344155 -0.00165259 0.0
-0.00231143 -0.00147299 0.0
-0.00136260 -0.00123627 0.0
-0.00063302 -0.00094918 0.0
-0.00014908 -0.00062655 0.0
0.00008502 -0.00029792 0.0
0.00010612 -0.00001994 0.0
0.00000000 0.00010539 0.0
0.00003320 -0.00010655 0.0
-0.00021093 0.00026991 0.0
-0.00083092 0.00092479 0.0
-0.00187030 0.00167285 0.0
-0.00332017 0.00240530 0.0
-0.00513860 0.00305978 0.0
-0.00726382 0.00360192 0.0
-0.00962331 0.00401438 0.0
-0.01213977 0.00429047 0.0
-0.01473524 0.00443032 0.0
-0.01733391 0.00443857 0.0
-0.01986408 0.00432298 0.0
-0.02225951 0.00409342 0.0
-0.02446039 0.00376124 0.0
-0.02641399 0.00333881 0.0
-0.02807519 0.00283920 0.0
-0.02940667 0.00227593 0.0
-0.03037924 0.00166282 0.0
-0.03097187 0.00101387 0.0
-0.03117182 0.00034320 0.0
-0.03097471 -0.00033498 0.0
-0.03038450 -0.00100641 0.0
-0.02941355 -0.00165681 0.0
-0.02808261 -0.00227188 0.0
-0.02642073 -0.00283740 0.0
-0.02446519 -0.00333928 0.0
-0.02226128 -0.00376371 0.0
-0.01986203 -0.00409736 0.0
-0.01732764 -0.00432764 0.0
-0.01472487 -0.00444303 0.0
-0.01212595 -0.00443362 0.0
-0.00960718 -0.00429173 0.0
-0.00724687 -0.00401290 0.0
-0.00512253 -0.00359733 0.0
-0.00330665 -0.00305215 0.0
-0.00186065 -0.00239518 0.0
-0.00082585 -0.00166134 0.0
-0.00021022 -0.00091355 0.0
0.00003091 -0.00026107 0.0
0.00000000 -0.00002619 0.0
-0.00010708 0.00002473 0.0
-0.00067026 0.00083309 0.0
-0.00175739 0.00201192 0.0
-0.00339621 0.00331167 0.0
-0.00556545 0.00457454 0.0
-0.00820869 0.00570303 0.0
-0.01124611 0.00663934 0.0
-0.01458367 0.00735194 0.0
-0.01812014 0.00782694 0.0
-0.02175235 0.00806252 0.0
-0.02537902 0.00806524 0.0
-0.02890361 0.00784757 0.0
-0.03223638 0.00742619 0.0
-0.03529591 0.00682077 0.0
-0.03801016 0.00605306 0.0
-0.04031723 0.00514627 0.0
-0.04216588 0.00412459 0.0
-0.04351592 0.00301286 0.0
-0.04433839 0.00183634 0.0
-0.04461574 0.00062056 0.0
-0.04434194 -0.00060878 0.0
-0.04352250 -0.00182585 0.0
-0.04217448 -0.00300482 0.0
-0.04032649 -0.00411987 0.0
-0.03801853 -0.00514536 0.0
-0.03530182 -0.00605599 0.0
-0.03223844 -0.00682710 0.0
-0.02890079 -0.00743501 0.0
-0.02537082 -0.00785760 0.0
-0.02173889 -0.00807495 0.0
-0.01810221 -0.00807030 0.0
-0.01456266 -0.00783128 0.0
-0.01122389 -0.00735167 0.0
-0.00818738 -0.00663384 0.0
-0.00554712 -0.00569240 0.0
-0.00338257 -0.00455974 0.0
-0.00174936 -0.00329455 0.0
-0.00066770 -0.00199521 0.0
-0.00010855 -0.00082022 0.0
0.00000000 -0.00030974 0.0
-0.00026215 0.00030818 0.0
-0.00118174 0.00175267 0.0
-0.00277539 0.00360557 0.0
-0.00503925 0.00557553 0.0
-0.00793049 0.00746578 0.0
-0.01137474 0.00914728 0.0
-0.01527458 0.01053918 0.0
-0.01951756 0.01159492 0.0
-0.02398303 0.01229241 0.0
-0.02854771 0.01262720 0.0
-0.03309012 0.01260765 0.0
-0.03749400 0.01225144 0.0
-0.04165085 0.01158305 0.0
-0.04546195 0.01063187 0.0
-0.04883971 0.00943082 0.0
-0.05170873 0.00801528 0.0
-0.05400650 0.00642236 0.0
-0.05568392 0.00469027 0.0
-0.05670559 0.00285801 0.0
-0.05705007 0.00096504 0.0
-0.05670999 -0.00094886 0.0
-0.05569210 -0.00284374 0.0
-0.05401729 -0.00467963 0.0
-0.05172052 -0.00641664 0.0
-0.04885067 -0.00801522 0.0
-0.04547019 -0.00943647 0.0
-0.04165469 -0.01064259 0.0
-0.03749217 -0.01159754 0.0
-0.03308196 -0.01226782 0.0
-0.02853324 -0.01262367 0.0
-0.02396307 -0.01264047 0.0
-0.01949364 -0.01230071 0.0
-0.01524880 -0.01159651 0.0
-0.01134954 -0.01053310 0.0
-0.00790833 -0.00913362 0.0
-0.00502218 -0.00744588 0.0
-0.00276467 -0.00555206 0.0
-0.00117745 -0.00358243 0.0
-0.00026293 -0.00173474 0.0
0.00000000 -0.00074156 0.0
-0.00041369 0.00074003 0.0
-0.00169525 0.00303423 0.0
-0.00380652 0.00571684 0.0
-0.00670398 0.00847299 0.0
-0.01031630 0.01107809 0.0
-0.01454675 0.01337773 0.0
-0.01927858 0.01527102 0.0
-0.02438129 0.01669763 0.0
-0.02971665 0.01762777 0.0
-0.03514413 0.01805469 0.0
-0.04052542 0.01798894 0.0
-0.04572809 0.01745411 0.0
-0.05062847 0.01648342 0.0
-0.05511387 0.01511727 0.0
-0.05908425 0.01340120 0.0
-0.06245341 0.01138445 0.0
-0.06514985 0.00911880 0.0
-0.06711737 0.00665780 0.0
-0.06831547 0.00405610 0.0
-0.06871958 0.00136915 0.0
-0.06832125 -0.00134719 0.0
-0.06712821 -0.00403678 0.0
-0.06516437 -0.00664347 0.0
-0.06246973 -0.00911127 0.0
-0.05910019 -0.01138475 0.0
-0.05512718 -0.01340947 0.0
-0.05063709 -0.01513268 0.0
-0.04573041 -0.01650422 0.0
-0.04052047 -0.01747776 0.0
-0.03513173 -0.01801240 0.0
-0.02969751 -0.01807469 0.0
-0.02435697 -0.01764125 0.0
-0.01925134 -0.01670214 0.0
-0.01451930 -0.01526514 0.0
-0.01029146 -0.01336146 0.0
-0.00668425 -0.01105310 0.0
-0.00379358 -0.00844273 0.0
-0.00168952 -0.00568649 0.0
-0.00041392 -0.00301033 0.0
0.00000000 -0.00131289 0.0
-0.00055635 0.00131151 0.0
-0.00219164 0.00466952 0.0
-0.00481666 0.00834186 0.0
-0.00834573 0.01200206 0.0
-0.01267485 0.01540721 0.0
-0.01768121 0.01838409 0.0
-0.02322629 0.02081610 0.0
-0.02916053 0.02263187 0.0
-0.03532841 0.02379565 0.0
-0.04157340 0.02429967 0.0
-0.04774226 0.02415780 0.0
-0.05368873 0.02340058 0.0
-0.05927649 0.02207119 0.0
-0.06438147 0.02022225 0.0
-0.06889360 0.01791333 0.0
-0.07271810 0.01520894 0.0
-0.07577638 0.01217708 0.0
-0.07800670 0.00888811 0.0
-0.07936455 0.00541396 0.0
-0.07982295 0.00182755 0.0
-0.07937259 -0.00179755 0.0
-0.07802193 -0.00538745 0.0
-0.07579716 -0.00886824 0.0
-0.07274219 -0.01216625 0.0
-0.06891836 -0.01520858 0.0
-0.06440413 -0.01792370 0.0
-0.05929446 -0.02024235 0.0
-0.05369986 -0.02209882 0.0
-0.04774511 -0.02343252 0.0
-0.04156742 -0.02419009 0.0
-0.03531406 -0.02432805 0.0
-0.02913926 -0.02381605 0.0
-0.02320044 -0.02264096 0.0
-0.01765372 -0.02081186 0.0
-0.01264895 -0.01836623 0.0
-0.00832441 -0.01537764 0.0
-0.00480213 -0.01196500 0.0
-0.00218480 -0.00830383 0.0
-0.00055616 -0.00463896 0.0
0.00000000 -0.00201501 0.0
-0.00068997 0.00201384 0.0
-0.00266686 0.00664641 0.0
-0.00579599 0.01147099 0.0
-0.00995007 0.01615615 0.0
-0.01499040 0.02044754 0.0
-0.02076543 0.02415912 0.0
-0.02711257 0.02716324 0.0
-0.03386166 0.02938096 0.0
-0.04083932 0.03077331 0.0
-0.04787325 0.03133360 0.0
-0.05479624 0.03108079 0.0
-0.06144964 0.03005398 0.0
-0.06768623 0.02830777 0.0
-0.07337244 0.02590846 0.0
-0.07839010 0.02293099 0.0
-0.08263764 0.01945649 0.0
-0.08603100 0.01557045 0.0
-0.08850420 0.01136131 0.0
-0.09000972 0.00691947 0.0
-0.09051872 0.00233655 0.0
-0.09002124 -0.00229503 0.0
-0.08852622 -0.00688248 0.0
-0.08606153 -0.01133293 0.0
-0.08267393 -0.01555385 0.0
-0.07842889 -0.01945362 0.0
-0.07341025 -0.02294233 0.0
-0.06771970 -0.02593290 0.0
-0.06147587 -0.02834265 0.0
-0.05481308 -0.03009531 0.0
-0.04787954 -0.03112362 0.0
-0.04083507 -0.03137252 0.0
-0.03384807 -0.03080305 0.0
-0.02709194 -0.02939709 0.0
-0.02074092 -0.02716287 0.0
-0.01496564 -0.02414152 0.0
-0.00992863 -0.02041465 0.0
-0.00578075 -0.01611288 0.0
-0.00265931 -0.01142527 0.0
-0.00068947 -0.00660880 0.0
0.00000000 -0.00284102 0.0
-0.00081626 0.00284014 0.0
-0.00312377 0.00895391 0.0
-0.00674731 0.01509454 0.0
-0.01151958 0.02092841 0.0
-0.01726646 0.02619442 0.0
-0.02380590 0.03069855 0.0
-0.03094924 0.03430658 0.0
-0.03850421 0.03693593 0.0
-0.04627857 0.03854768 0.0
-0.05408399 0.03913902 0.0
-0.06173962 0.03873642 0.0
-0.06907527 0.03738963 0.0
-0.07593402 0.03516652 0.0
-0.08217427 0.03214872 0.0
-0.08767127 0.02842798 0.0
-0.09231818 0.02410339 0.0
-0.09602681 0.01927909 0.0
-0.09872811 0.01406261 0.0
-0.10037238 0.00856374 0.0
-0.10092948 0.00289366 0.0
-0.10038892 -0.00283558 0.0
-0.09875993 -0.00851147 0.0
-0.09607147 -0.01402139 0.0
-0.09237226 -0.01925306 0.0
-0.08773068 -0.02409521 0.0
-0.08223457 -0.02843844 0.0
-0.07599080 -0.03217667 0.0
-0.06912458 -0.03520888 0.0
-0.06177830 -0.03744159 0.0
-0.05411002 -0.03879191 0.0
-0.04629125 -0.03919128 0.0
-0.03850429 -0.03859001 0.0
-0.03093887 -0.03696252 0.0
-0.02378836 -0.03431337 0.0
-0.01724582 -0.03068407 0.0
-0.01150004 -0.02616042 0.0
-0.00673256 -0.02088036 0.0
-0.00311608 -0.01504175 0.0
-0.00081561 -0.00890928 0.0
0.00000000 -0.00378648 0.0
-0.00093752 0.00378593 0.0
-0.00356815 0.01158454 0.0
-0.00767949 0.01920587 0.0
-0.01306574 0.02631467 0.0
-0.01951717 0.03264585 0.0
-0.02681993 0.03800132 0.0
-0.03475777 0.04224442 0.0
-0.04311481 0.04529297 0.0
-0.05167894 0.04711181 0.0
-0.06024525 0.04770533 0.0
-0.06861930 0.04711047 0.0
-0.07661990 0.04539023 0.0
-0.08408135 0.04262798 0.0
-0.09085520 0.03892256 0.0
-0.09681141 0.03438420 0.0
-0.10183921 0.02913119 0.0
-0.10584753 0.02328740 0.0
-0.10876525 0.01698033 0.0
-0.11054132 0.01033981 0.0
-0.11114476 0.00349710 0.0
-0.11056472 -0.00341562 0.0
-0.10881049 -0.01026571 0.0
-0.10591157 -0.01692031 0.0
-0.10191779 -0.02324684 0.0
-0.09689936 -0.02911364 0.0
-0.09094682 -0.03439098 0.0
-0.08417089 -0.03895260 0.0
-0.07670199 -0.04267777 0.0
-0.06868946 -0.04545412 0.0
-0.06030022 -0.04718114 0.0
-0.05171705 -0.04777445 0.0
-0.04313612 -0.04717095 0.0
-0.03476405 -0.04533459 0.0
-0.02681450 -0.04226292 0.0
-0.01950448 -0.03799409 0.0
-0.01305074 -0.03261416 0.0
-0.00766679 -0.02626431 0.0
-0.00356107 -0.01914747 0.0
-0.00093691 -0.01153344 0.0
0.00000000 -0.00484933 0.0
-0.00105606 0.00484916 0.0
-0.00400670 0.01453518 0.0
-0.00860380 0.02380298 0.0
-0.01460402 0.03231489 0.0
-0.02176166 0.03980349 0.0
-0.02983007 0.04606972 0.0
-0.03856398 0.05097833 0.0
-0.04772260 0.05445160 0.0
-0.05707294 0.05646215 0.0
-0.06639302 0.05702541 0.0
-0.07547477 0.05619222 0.0
-0.08412642 0.05404188 0.0
-0.09217433 0.05067589 0.0
-0.09946425 0.04621248 0.0
-0.10586214 0.04078209 0.0
-0.11125455 0.03452360 0.0
-0.11554871 0.02758156 0.0
-0.11867250 0.02010412 0.0
-0.12057426 0.01224157 0.0
-0.12122267 0.00414551 0.0
-0.12060663 -0.00403166 0.0
-0.11873529 -0.01213704 0.0
-0.11563817 -0.02001743 0.0
-0.11136536 -0.02751965 0.0
-0.10598780 -0.03449121 0.0
-0.09959749 -0.04078129 0.0
-0.09230767 -0.04624241 0.0
-0.08425274 -0.05073271 0.0
-0.07558781 -0.05411905 0.0
-0.06648795 -0.05628100 0.0
-0.05714672 -0.05711568 0.0
-0.04777427 -0.05654340 0.0
-0.03859472 -0.05451413 0.0
-0.02984309 -0.05101456 0.0
-0.02176174 -0.04607544 0.0
-0.01459688 -0.03977902 0.0
-0.00859517 -0.03226602 0.0
-0.00400117 -0.02374148 0.0
-0.00105576 -0.01447884 0.0
0.00000000 -0.00602980 0.0
-0.00117406 0.00603006 0.0
-0.00444608 0.01780720 0.0
-0.00953208 0.02888898 0.0
-0.01615106 0.03893387 0.0
-0.02402068 0.04767311 0.0
-0.03286027 0.05490931 0.0
-0.04239423 0.06051229 0.0
-0.05235565 0.06441302 0.0
-0.06248979 0.06659628 0.0
-0.07255715 0.06709277 0.0
-0.08233611 0.06597117 0.0
-0.09162483 0.06333060 0.0
-0.10024262 0.05929368 0.0
-0.10803064 0.05400050 0.0
-0.11485212 0.04760358 0.0
-0.12059231 0.04026378 0.0
-0.12515801 0.03214726 0.0
-0.12847716 0.02342327 0.0
-0.13049834 0.01426275 0.0
-0.13119035 0.00483752 0.0
-0.13054201 -0.00468000 0.0
-0.12856213 -0.01411693 0.0
-0.12527964 -0.02329991 0.0
-0.12074402 -0.03205527 0.0
-0.11502579 -0.04020944 0.0
-0.10821710 -0.04758998 0.0
-0.10043232 -0.05402720 0.0
-0.09180843 -0.05935660 0.0
-0.08250517 -0.06342230 0.0
-0.07270480 -0.06608138 0.0
-0.06261121 -0.06720927 0.0
-0.05244849 -0.06670612 0.0
-0.04245877 -0.06450386 0.0
-0.03289937 -0.06057396 0.0
-0.02403937 -0.05493543 0.0
-0.01615587 -0.04766252 0.0
-0.00953001 -0.03889188 0.0
-0.00444331 -0.02882818 0.0
-0.00117441 -0.01774774 0.0
0.00000000 -0.00733015 0.0
-0.00129346 0.00733090 0.0
-0.00489259 0.02140632 0.0
-0.01047573 0.03447211 0.0
-0.01772314 0.04618129 0.0
-0.02631447 0.05626444 0.0
-0.03593352 0.06452836 0.0
-0.04627293 0.07085170 0.0
-0.05703850 0.07517859 0.0
-0.06795296 0.07751074 0.0
-0.07875909 0.07789890 0.0
-0.08922198 0.07643406 0.0
-0.09913050 0.07323912 0.0
-0.10829803 0.06846121 0.0
-0.11656254 0.06226500 0.0
-0.12378609 0.05482713 0.0
-0.12985415 0.04633183 0.0
-0.13467452 0.03696763 0.0
-0.13817642 0.02692518 0.0
-0.14030957 0.01639590 0.0
-0.14104349 0.00557144 0.0
-0.14036707 -0.00535642 0.0
-0.13828852 -0.01619548 0.0
-0.13483559 -0.02675284 0.0
-0.13005615 -0.03683471 0.0
-0.12401901 -0.04624657 0.0
-0.11681498 -0.05479401 0.0
-0.10855795 -0.06228423 0.0
-0.09938591 -0.06852864 0.0
-0.08946180 -0.07334641 0.0
-0.07897390 -0.07656928 0.0
-0.06813568 -0.07804750 0.0
-0.05718493 -0.07765686 0.0
-0.04638210 -0.07530669 0.0
-0.03600765 -0.07094841 0.0
-0.02635869 -0.06458439 0.0
-0.01774478 -0.05627644 0.0
-0.01048322 -0.04615345 0.0
-0.00489402 -0.03441737 0.0
-0.00129487 -0.02134689 0.0
0.00000000 -0.00875448 0.0
-0.00141601 0.00875576 0.0
-0.00535197 0.02534229 0.0
-0.01144535 0.04056549 0.0
-0.01933545 0.05407138 0.0
-0.02866171 0.06559070 0.0
-0.03907044 0.07493709 0.0
-0.05022084 0.08200210 0.0
-0.06179023 0.08674798 0.0
-0.07347826 0.08919877 0.0
-0.08500996 0.08943060 0.0
-0.09613776 0.08756186 0.0
-0.10664236 0.08374372 0.0
-0.11633274 0.07815160 0.0
-0.12504544 0.07097770 0.0
-0.13264326 0.06242495 0.0
-0.13901370 0.05270227 0.0
-0.14406727 0.04202121 0.0
-0.14773590 0.03059381 0.0
-0.14997150 0.01863150 0.0
-0.15074495 0.00634489 0.0
-0.15004544 -0.00605593 0.0
-0.14788030 -0.01836061 0.0
-0.14427540 -0.03035775 0.0
-0.13927585 -0.04183426 0.0
-0.13294729 -0.05257513 0.0
-0.12537743 -0.06236387 0.0
-0.11667774 -0.07098392 0.0
-0.10698531 -0.07822107 0.0
-0.09646441 -0.08386730 0.0
-0.08530782 -0.08772587 0.0
-0.07373745 -0.08961787 0.0
-0.06200422 -0.08939010 0.0
-0.05038689 -0.08692401 0.0
-0.03918982 -0.08214548 0.0
-0.02873944 -0.07503477 0.0
-0.01937960 -0.06563627 0.0
-0.01146594 -0.05406711 0.0
-0.00535936 -0.04052395 0.0
-0.00141897 -0.02528727 0.0
0.00000000 -0.01030855 0.0
-0.00154326 0.01031041 0.0
-0.00582953 0.02962856 0.0
-0.01245071 0.04718667 0.0
-0.02100176 0.06262243 0.0
-0.03107891 0.07566784 0.0
-0.04228835 0.08614653 0.0
-0.05425389 0.09396764 0.0
-0.06662314 0.09911723 0.0
-0.07907220 0.10164783 0.0
-0.09130873 0.10166714 0.0
-0.10307355 0.09932668 0.0
-0.11414082 0.09481099 0.0
-0.12431716 0.08832794 0.0
-0.13343997 0.08010051 0.0
-0.14137512 0.07036009 0.0
-0.14801442 0.05934157 0.0
-0.15327311 0.04727990 0.0
-0.15708751 0.03440820 0.0
-0.15941299 0.02095699 0.0
-0.16022257 0.00715446 0.0
-0.15950596 -0.00677254 0.0
-0.15726938 -0.02059720 0.0
-0.15353592 -0.03409121 0.0
-0.14834667 -0.04702351 0.0
-0.14176234 -0.05915946 0.0
-0.13386541 -0.07026080 0.0
-0.12476264 -0.08008668 0.0
-0.11458777 -0.08839595 0.0
-0.10350406 -0.09495101 0.0
-0.09170667 -0.09952325 0.0
-0.07942431 -0.10190023 0.0
-0.06691995 -0.10189446 0.0
-0.05449041 -0.09935355 0.0
-0.04246444 -0.09417145 0.0
-0.03119916 -0.08630005 0.0
-0.02107490 -0.07576053 0.0
-0.01248845 -0.06265356 0.0
-0.00584488 -0.04716752 0.0
-0.00154836 -0.02958379 0.0
0.00000000 -0.01199968 0.0
-0.00167666 0.01200221 0.0
-0.00633020 0.03428210 0.0
-0.01350082 0.05435729 0.0
-0.02273455 0.07185617 0.0
-0.03358033 0.08651362 0.0
-0.04560096 0.09816716 0.0
-0.05838251 0.10674919 0.0
-0.07154159 0.11227632 0.0
-0.08473055 0.11483679 0.0
-0.09764046 0.11457704 0.0
-0.11000213 0.11168835 0.0
-0.12158546 0.10639432 0.0
-0.13219744 0.09893993 0.0
-0.14167924 0.08958231 0.0
-0.14990271 0.07858357 0.0
-0.15676677 0.06620563 0.0
-0.16219382 0.05270696 0.0
-0.16612657 0.03834095 0.0
-0.16852537 0.02335579 0.0
-0.16936626 0.00799536 0.0
-0.16863981 -0.00749899 0.0
-0.16635076 -0.02288625 0.0
-0.16251854 -0.03792343 0.0
-0.15717865 -0.05236340 0.0
-0.15038481 -0.06595331 0.0
-0.14221177 -0.07843384 0.0
-0.13275872 -0.08953972 0.0
-0.12215301 -0.09900166 0.0
-0.11055390 -0.10655012 0.0
-0.09815614 -0.11192101 0.0
-0.08519287 -0.11486350 0.0
-0.07193750 -0.11514983 0.0
-0.05870415 -0.11258691 0.0
-0.04584624 -0.10702936 0.0
-0.03375304 -0.09839325 0.0
-0.02284390 -0.08666966 0.0
-0.01356029 -0.07193717 0.0
-0.00635580 -0.05437202 0.0
-0.00168457 -0.03425502 0.0
0.00000000 -0.01383677 0.0
-0.00181764 0.01384003 0.0
-0.00685877 0.03932323 0.0
-0.01460424 0.06210277 0.0
-0.02454519 0.08179712 0.0
-0.03617805 0.09814647 0.0
-0.04901815 0.11100726 0.0
-0.06261106 0.12034210 0.0
-0.07654109 0.12620635 0.0
-0.09043692 0.12873262 0.0
-0.10397437 0.12811449 0.0
-0.11687660 0.12459058 0.0
-0.12891235 0.11843007 0.0
-0.13989249 0.10992006 0.0
-0.14966564 0.09935546 0.0
-0.15811330 0.08703122 0.0
-0.16514480 0.07323713 0.0
-0.17069264 0.05825479 0.0
-0.17470830 0.04235660 0.0
-0.17715885 0.02580633 0.0
-0.17802445 0.00886096 0.0
-0.17729687 -0.00822657 0.0
-0.17497903 -0.02520409 0.0
-0.17108561 -0.04181684 0.0
-0.16564479 -0.05780423 0.0
-0.15870084 -0.07289725 0.0
-0.15031783 -0.08681685 0.0
-0.14058395 -0.09927361 0.0
-0.12961641 -0.10996920 0.0
-0.11756666 -0.11859987 0.0
-0.10462539 -0.12486228 0.0
-0.09102700 -0.12846190 0.0
-0.07705290 -0.12912392 0.0
-0.06303316 -0.12660664 0.0
-0.04934589 -0.12071663 0.0
-0.03641394 -0.11132520 0.0
-0.02469864 -0.09838497 0.0
-0.01469050 -0.08194531 0.0
-0.00689717 -0.06216536 0.0
-0.00182910 -0.03932308 0.0
0.00000000 -0.01583030 0.0
-0.00196766 0.01583440 0.0
-0.00742014 0.04477571 0.0
-0.01576950 0.07045213 0.0
-0.02644440 0.09247202 0.0
-0.03888226 0.11058433 0.0
-0.05254594 0.12467094 0.0
-0.06693734 0.13473350 0.0
-0.08160721 0.14087622 0.0
-0.09616110 0.14328652 0.0
-0.11026166 0.14221505 0.0
-0.12362771 0.13795663 0.0
-0.13603088 0.13083324 0.0
-0.14729045 0.12117964 0.0
-0.15726714 0.10933214 0.0
-0.16585644 0.09562053 0.0
-0.17298213 0.08036283 0.0
-0.17859023 0.06386289 0.0
-0.18264374 0.04641012 0.0
-0.18511848 0.02828107 0.0
-0.18599997 0.00974244 0.0
-0.18528160 -0.00894493 0.0
-0.18296411 -0.02752159 0.0
-0.17905623 -0.04572471 0.0
-0.17357679 -0.06328367 0.0
-0.16655789 -0.07991614 0.0
-0.15804942 -0.09532532 0.0
-0.14812446 -0.10919857 0.0
-0.13688559 -0.12120808 0.0
-0.12447165 -0.13101381 0.0
-0.11106463 -0.13826930 0.0
-0.09689594 -0.14263059 0.0
-0.08225160 -0.14376826 0.0
-0.06747549 -0.14138275 0.0
-0.05296989 -0.13522224 0.0
-0.03919261 -0.12510248 0.0
-0.02665035 -0.11092722 0.0
-0.01588800 -0.09270766 0.0
-0.00747413 -0.07057923 0.0
-0.00198350 -0.04481371 0.0
0.00000000 -0.01799260 0.0
-0.00212834 0.01799763 0.0
-0.00801966 0.05066704 0.0
-0.01700558 0.07943805 0.0
-0.02844281 0.10390925 0.0
-0.04170167 0.12384318 0.0
-0.05618654 0.13915581 0.0