# vtk DataFile Version 4.0
2D velocity field
ASCII
DATASET STRUCTURED_GRID
DIMENSIONS 40 40 1
POINTS 1600 float
0.00000000 0.00000000 1.0
1.00000000 0.00000000 1.0
2.00000000 0.00000000 1.0
3.00000000 0.00000000 1.0
4.00000000 0.00000000 1.0
5.00000000 0.00000000 1.0
6.00000000 0.00000000 1.0
7.00000000 0.00000000 1.0
8.00000000 0.00000000 1.0
9.00000000 0.00000000 1.0
10.00000000 0.00000000 1.0
11.00000000 0.00000000 1.0
12.00000000 0.00000000 1.0
13.00000000 0.00000000 1.0
14.00000000 0.00000000 1.0
15.00000000 0.00000000 1.0
16.00000000 0.00000000 1.0
17.00000000 0.00000000 1.0
18.00000000 0.00000000 1.0
19.00000000 0.00000000 1.0
20.00000000 0.00000000 1.0
21.00000000 0.00000000 1.0
22.00000000 0.00000000 1.0
23.00000000 0.00000000 1.0
24.00000000 0.00000000 1.0
25.00000000 0.00000000 1.0
26.00000000 0.00000000 1.0
27.00000000 0.00000000 1.0
28.00000000 0.00000000 1.0
29.00000000 0.00000000 1.0
30.00000000 0.00000000 1.0
31.00000000 0.00000000 1.0
32.00000000 0.00000000 1.0
33.00000000 0.00000000 1.0
34.00000000 0.00000000 1.0
35.00000000 0.00000000 1.0
36.00000000 0.00000000 1.0
37.00000000 0.00000000 1.0
38.00000000 0.00000000 1.0
39.00000000 0.00000000 1.0
0.00000000 1.00000000 1.0
1.00000000 1.00000000 1.0
2.00000000 1.00000000 1.0
3.00000000 1.00000000 1.0
4.00000000 1.00000000 1.0
5.00000000 1.00000000 1.0
6.00000000 1.00000000 1.0
7.00000000 1.00000000 1.0
8.00000000 1.00000000 1.0
9.00000000 1.00000000 1.0
10.00000000 1.00000000 1.0
11.00000000 1.00000000 1.0
12.00000000 1.00000000 1.0
13.00000000 1.00000000 1.0
14.00000000 1.00000000 1.0
15.00000000 1.00000000 1.0
16.00000000 1.00000000 1.0
17.00000000 1.00000000 1.0
18.00000000 1.00000000 1.0
19.00000000 1.00000000 1.0
20.00000000 1.00000000 1.0
21.00000000 1.00000000 1.0
22.00000000 1.00000000 1.0
23.00000000 1.00000000 1.0
24.00000000 1.00000000 1.0
25.00000000 1.00000000 1.0
26.00000000 1.00000000 1.0
27.00000000 1.00000000 1.0
28.00000000 1.00000000 1.0
29.00000000 1.00000000 1.0
30.00000000 1.00000000 1.0
31.00000000 1.00000000 1.0
32.00000000 1.00000000 1.0
33.00000000 1.00000000 1.0
34.00000000 1.00000000 1.0
35.00000000 1.00000000 1.0
36.00000000 1.00000000 1.0
37.00000000 1.00000000 1.0
38.00000000 1.00000000 1.0
39.00000000 1.00000000 1.0
0.00000000 2.00000000 1.0
1.00000000 2.00000000 1.0
2.00000000 2.00000000 1.0
3.00000000 2.00000000 1.0
4.00000000 2.00000000 1.0
5.00000000 2.00000000 1.0
6.00000000 2.00000000 1.0
7.00000000 2.00000000 1.0
8.00000000 2.00000000 1.0
9.00000000 2.00000000 1.0
10.00000000 2.00000000 1.0
11.00000000 2.00000000 1.0
12.00000000 2.00000000 1.0
13.00000000 2.00000000 1.0
14.00000000 2.00000000 1.0
15.00000000 2.00000000 1.0
16.00000000 2.00000000 1.0
17.00000000 2.00000000 1.0
18.00000000 2.00000000 1.0
19.00000000 2.00000000 1.0
20.00000000 2.00000000 1.0
21.00000000 2.00000000 1.0
22.00000000 2.00000000 1.0
23.00000000 2.00000000 1.0
24.00000000 2.00000000 1.0
25.00000000 2.00000000 1.0
26.00000000 2.00000000 1.0
27.00000000 2.00000000 1.0
28.00000000 2.00000000 1.0
29.00000000 2.00000000 1.0
30.00000000 2.00000000 1.0
31.00000000 2.00000000 1.0
32.00000000 2.00000000 1.0
33.00000000 2.00000000 1.0
34.00000000 2.00000000 1.0
35.00000000 2.00000000 1.0
36.00000000 2.00000000 1.0
37.00000000 2.00000000 1.0
38.00000000 2.00000000 1.0
39.00000000 2.00000000 1.0
0.00000000 3.00000000 1.0
1.00000000 3.00000000 1.0
2.00000000 3.00000000 1.0
3.00000000 3.00000000 1.0
4.00000000 3.00000000 1.0
5.00000000 3.00000000 1.0
6.00000000 3.00000000 1.0
7.00000000 3.00000000 1.0
8.00000000 3.00000000 1.0
9.00000000 3.00000000 1.0
10.00000000 3.00000000 1.0
11.00000000 3.00000000 1.0
12.00000000 3.00000000 1.0
13.00000000 3.00000000 1.0
14.00000000 3.00000000 1.0
15.00000000 3.00000000 1.0
16.00000000 3.00000000 1.0
17.00000000 3.00000000 1.0
18.00000000 3.00000000 1.0
19.00000000 3.00000000 1.0
20.00000000 3.00000000 1.0
21.00000000 3.00000000 1.0
22.00000000 3.00000000 1.0
23.00000000 3.00000000 1.0
24.00000000 3.00000000 1.0
25.00000000 3.00000000 1.0
26.00000000 3.00000000 1.0
27.00000000 3.00000000 1.0
28.00000000 3.00000000 1.0
29.00000000 3.00000000 1.0
30.00000000 3.00000000 1.0
31.00000000 3.00000000 1.0
32.00000000 3.00000000 1.0
33.00000000 3.00000000 1.0
34.00000000 3.00000000 1.0
35.00000000 3.00000000 1.0
36.00000000 3.00000000 1.0
37.00000000 3.00000000 1.0
38.00000000 3.00000000 1.0
39.00000000 3.00000000 1.0
0.00000000 4.00000000 1.0
1.00000000 4.00000000 1.0
2.00000000 4.00000000 1.0
3.00000000 4.00000000 1.0
4.00000000 4.00000000 1.0
5.00000000 4.00000000 1.0
6.00000000 4.00000000 1.0
7.00000000 4.00000000 1.0
8.00000000 4.00000000 1.0
9.00000000 4.00000000 1.0
10.00000000 4.00000000 1.0
11.00000000 4.00000000 1.0
12.00000000 4.00000000 1.0
13.00000000 4.00000000 1.0
14.00000000 4.00000000 1.0
15.00000000 4.00000000 1.0
16.00000000 4.00000000 1.0
17.00000000 4.00000000 1.0
18.00000000 4.00000000 1.0
19.00000000 4.00000000 1.0
20.00000000 4.00000000 1.0
21.00000000 4.00000000 1.0
22.00000000 4.00000000 1.0
23.00000000 4.00000000 1.0
24.00000000 4.00000000 1.0
25.00000000 4.00000000 1.0
26.00000000 4.00000000 1.0
27.00000000 4.00000000 1.0
28.00000000 4.00000000 1.0
29.00000000 4.00000000 1.0
30.00000000 4.00000000 1.0
31.00000000 4.00000000 1.0
32.00000000 4.00000000 1.0
33.00000000 4.00000000 1.0
34.00000000 4.00000000 1.0
35.00000000 4.00000000 1.0
36.00000000 4.00000000 1.0
37.00000000 4.00000000 1.0
38.00000000 4.00000000 1.0
39.00000000 4.00000000 1.0
0.00000000 5.00000000 1.0
1.00000000 5.00000000 1.0
2.00000000 5.00000000 1.0
3.00000000 5.00000000 1.0
4.00000000 5.00000000 1.0
5.00000000 5.00000000 1.0
6.00000000 5.00000000 1.0
7.00000000 5.00000000 1.0
8.00000000 5.00000000 1.0
9.00000000 5.00000000 1.0
10.00000000 5.00000000 1.0
11.00000000 5.00000000 1.0
12.00000000 5.00000000 1.0
13.00000000 5.00000000 1.0
14.00000000 5.00000000 1.0
15.00000000 5.00000000 1.0
16.00000000 5.00000000 1.0
17.00000000 5.00000000 1.0
18.00000000 5.00000000 1.0
19.00000000 5.00000000 1.0
20.00000000 5.00000000 1.0
21.00000000 5.00000000 1.0
22.00000000 5.00000000 1.0
23.00000000 5.00000000 1.0
24.00000000 5.00000000 1.0
25.00000000 5.00000000 1.0
26.00000000 5.00000000 1.0
27.00000000 5.00000000 1.0
28.00000000 5.00000000 1.0
29.00000000 5.00000000 1.0
30.00000000 5.00000000 1.0
31.00000000 5.00000000 1.0
32.00000000 5.00000000 1.0
33.00000000 5.00000000 1.0
34.00000000 5.00000000 1.0
35.00000000 5.00000000 1.0
36.00000000 5.00000000 1.0
37.00000000 5.00000000 1.0
38.00000000 5.00000000 1.0
39.00000000 5.00000000 1.0
0.00000000 6.00000000 1.0
1.00000000 6.00000000 1.0
2.00000000 6.00000000 1.0
3.00000000 6.00000000 1.0
4.00000000 6.00000000 1.0
5.00000000 6.00000000 1.0
6.00000000 6.00000000 1.0
7.00000000 6.00000000 1.0
8.00000000 6.00000000 1.0
9.00000000 6.00000000 1.0
10.00000000 6.00000000 1.0
11.00000000 6.00000000 1.0
12.00000000 6.00000000 1.0
13.00000000 6.00000000 1.0
14.00000000 6.00000000 1.0
15.00000000 6.00000000 1.0
16.00000000 6.00000000 1.0
17.00000000 6.00000000 1.0
18.00000000 6.00000000 1.0
19.00000000 6.00000000 1.0
20.00000000 6.00000000 1.0
21.00000000 6.00000000 1.0
22.00000000 6.00000000 1.0
23.00000000 6.00000000 1.0
24.00000000 6.00000000 1.0
25.00000000 6.00000000 1.0
26.00000000 6.00000000 1.0
27.00000000 6.00000000 1.0
28.00000000 6.00000000 1.0
29.00000000 6.00000000 1.0
30.00000000 6.00000000 1.0
31.00000000 6.00000000 1.0
32.00000000 6.00000000 1.0
33.00000000 6.00000000 1.0
34.00000000 6.00000000 1.0
35.00000000 6.00000000 1.0
36.00000000 6.00000000 1.0
37.00000000 6.00000000 1.0
38.00000000 6.00000000 1.0
39.00000000 6.00000000 1.0
0.00000000 7.00000000 1.0
1.00000000 7.00000000 1.0
2.00000000 7.00000000 1.0
3.00000000 7.00000000 1.0
4.00000000 7.00000000 1.0
5.00000000 7.00000000 1.0
6.00000000 7.00000000 1.0
7.00000000 7.00000000 1.0
8.00000000 7.00000000 1.0
9.00000000 7.00000000 1.0
10.00000000 7.00000000 1.0
11.00000000 7.00000000 1.0
12.00000000 7.00000000 1.0
13.00000000 7.00000000 1.0
14.00000000 7.00000000 1.0
15.00000000 7.00000000 1.0
16.00000000 7.00000000 1.0
17.00000000 7.00000000 1.0
18.00000000 7.00000000 1.0
19.00000000 7.00000000 1.0
20.00000000 7.00000000 1.0
21.00000000 7.00000000 1.0
22.00000000 7.00000000 1.0
23.00000000 7.00000000 1.0
24.00000000 7.00000000 1.0
25.00000000 7.00000000 1.0
26.00000000 7.00000000 1.0
27.00000000 7.00000000 1.0
28.00000000 7.00000000 1.0
29.00000000 7.00000000 1.0
30.00000000 7.00000000 1.0
31.00000000 7.00000000 1.0
32.00000000 7.00000000 1.0
33.00000000 7.00000000 1.0
34.00000000 7.00000000 1.0
35.00000000 7.00000000 1.0
36.00000000 7.00000000 1.0
37.00000000 7.00000000 1.0
38.00000000 7.00000000 1.0
39.00000000 7.00000000 1.0
0.00000000 8.00000000 1.0
1.00000000 8.00000000 1.0
2.00000000 8.00000000 1.0
3.00000000 8.00000000 1.0
4.00000000 8.00000000 1.0
5.00000000 8.00000000 1.0
6.00000000 8.00000000 1.0
7.00000000 8.00000000 1.0
8.00000000 8.00000000 1.0
9.00000000 8.00000000 1.0
10.00000000 8.00000000 1.0
11.00000000 8.00000000 1.0
12.00000000 8.00000000 1.0
13.00000000 8.00000000 1.0
14.00000000 8.00000000 1.0
15.00000000 8.00000000 1.0
16.00000000 8.00000000 1.0
17.00000000 8.00000000 1.0
18.00000000 8.00000000 1.0
19.00000000 8.00000000 1.0
20.00000000 8.00000000 1.0
21.00000000 8.00000000 1.0
22.00000000 8.00000000 1.0
23.00000000 8.00000000 1.0
24.00000000 8.00000000 1.0
25.00000000 8.00000000 1.0
26.00000000 8.00000000 1.0
27.00000000 8.00000000 1.0
28.00000000 8.00000000 1.0
29.00000000 8.00000000 1.0
30.00000000 8.00000000 1.0
31.00000000 8.00000000 1.0
32.00000000 8.00000000 1.0
33.00000000 8.00000000 1.0
34.00000000 8.00000000 1.0
35.00000000 8.00000000 1.0
36.00000000 8.00000000 1.0
37.00000000 8.00000000 1.0
38.00000000 8.00000000 1.0
39.00000000 8.00000000 1.0
0.00000000 9.00000000 1.0
1.00000000 9.00000000 1.0
2.00000000 9.00000000 1.0
3.00000000 9.00000000 1.0
4.00000000 9.00000000 1.0
5.00000000 9.00000000 1.0
6.00000000 9.00000000 1.0
7.00000000 9.00000000 1.0
8.00000000 9.00000000 1.0
[...]
POINT_DATA 1600
VECTORS velocity double
0.00000000 0.00001934 0.0
0.00000025 -0.00001945 0.0
0.00000043 0.00000528 0.0
0.00000053 0.00006049 0.0
0.00000055 0.00012323 0.0
0.00000049 0.00018217 0.0
0.00000039 0.00023239 0.0
0.00000024 0.00027197 0.0
0.00000007 0.00030043 0.0
-0.00000011 0.00031799 0.0
-0.00000030 0.00032522 0.0
-0.00000048 0.00032289 0.0
-0.00000066 0.00031189 0.0
-0.00000083 0.00029314 0.0
-0.00000098 0.00026762 0.0
-0.00000111 0.00023627 0.0
-0.00000122 0.00020006 0.0
-0.00000131 0.00015990 0.0
-0.00000137 0.00011669 0.0
-0.00000141 0.00007132 0.0
-0.00000143 0.00002465 0.0
-0.00000141 -0.00002248 0.0
-0.00000138 -0.00006922 0.0
-0.00000131 -0.00011470 0.0
-0.00000122 -0.00015807 0.0
-0.00000111 -0.00019843 0.0
-0.00000098 -0.00023484 0.0
-0.00000083 -0.00026638 0.0
-0.00000066 -0.00029207 0.0
-0.00000048 -0.00031093 0.0
-0.00000030 -0.00032198 0.0
-0.00000011 -0.00032428 0.0
0.00000008 -0.00031695 0.0
0.00000024 -0.00029924 0.0
0.00000039 -0.00027057 0.0
0.00000050 -0.00023076 0.0
0.00000055 -0.00018032 0.0
0.00000053 -0.00012119 0.0
0.00000042 -0.00005834 0.0
0.00000025 -0.00000316 0.0
0.00000000 0.00005804 0.0
0.00008638 -0.00005853 0.0
0.00003668 0.00007131 0.0
-0.00019504 0.00030941 0.0
-0.00062896 0.00057540 0.0
-0.00125477 0.00082734 0.0
-0.00204661 0.00104457 0.0
-0.00297129 0.00121776 0.0
-0.00399285 0.00134359 0.0
-0.00507516 0.00142205 0.0
-0.00618342 0.00145501 0.0
-0.00728505 0.00144546 0.0
-0.00835023 0.00139705 0.0
-0.00935223 0.00131379 0.0
-0.01026752 0.00119991 0.0
-0.01107587 0.00105966 0.0
-0.01176029 0.00089731 0.0
-0.01230704 0.00071702 0.0
-0.01270547 0.00052288 0.0
-0.01294801 0.00031888 0.0
-0.01303013 0.00010894 0.0
-0.01295022 -0.00010306 0.0
-0.01270968 -0.00031326 0.0
-0.01231288 -0.00051776 0.0
-0.01176723 -0.00071260 0.0
-0.01108329 -0.00089370 0.0
-0.01027477 -0.00105692 0.0
-0.00935869 -0.00119798 0.0
-0.00835538 -0.00131254 0.0
-0.00728854 -0.00139627 0.0
-0.00618509 -0.00144489 0.0
-0.00507507 -0.00145435 0.0
-0.00399130 -0.00142100 0.0
-0.00296877 -0.00134189 0.0
-0.00204375 -0.00121522 0.0
-0.00125227 -0.00104110 0.0
-0.00062746 -0.00082299 0.0
-0.00019504 -0.00057038 0.0
0.00003502 -0.00030409 0.0
0.00008342 -0.00006640 0.0
0.00000000 0.00004310 0.0
0.00001597 -0.00004400 0.0
-0.00022718 0.00031446 0.0
-0.00078520 0.00086743 0.0
-0.00168054 0.00147074 0.0
-0.00289628 0.00204308 0.0
-0.00439183 0.00254012 0.0
-0.00611338 0.00293931 0.0
-0.00800082 0.00323103 0.0
-0.00999223 0.00341347 0.0
-0.01202688 0.00348966 0.0
-0.01404709 0.00346567 0.0
-0.01599950 0.00334946 0.0
-0.01783586 0.00315014 0.0
-0.01951341 0.00287746 0.0
-0.02099518 0.00254144 0.0
-0.02225003 0.00215215 0.0
-0.02325260 0.00171959 0.0
-0.02398327 0.00125355 0.0
-0.02442807 0.00076367 0.0
-0.02457855 0.00025943 0.0
-0.02443182 -0.00024979 0.0
-0.02399044 -0.00075464 0.0
-0.02326255 -0.00124565 0.0
-0.02226189 -0.00171326 0.0
-0.02100791 -0.00214768 0.0
-0.01952592 -0.00253891 0.0
-0.01784711 -0.00287678 0.0
-0.01600864 -0.00315102 0.0
-0.01405349 -0.00335142 0.0
-0.01203027 -0.00346811 0.0
-0.00999270 -0.00349192 0.0
-0.00799882 -0.00341489 0.0
-0.00610968 -0.00323102 0.0
-0.00438742 -0.00293747 0.0
-0.00289223 -0.00253628 0.0
-0.00167783 -0.00203739 0.0
-0.00078450 -0.00146372 0.0
-0.00022859 -0.00086000 0.0
0.00001310 -0.00030809 0.0
0.00000000 -0.00008749 0.0
-0.00010170 0.00008640 0.0
-0.00060708 0.00081984 0.0
-0.00154453 0.00180488 0.0
-0.00292242 0.00284863 0.0
-0.00471265 0.00383330 0.0
-0.00686195 0.00468942 0.0
-0.00930126 0.00537861 0.0
-0.01195288 0.00588265 0.0
-0.01473590 0.00619649 0.0
-0.01757000 0.00632375 0.0
-0.02037815 0.00627382 0.0
-0.02308853 0.00605984 0.0
-0.02563570 0.00569732 0.0
-0.02796143 0.00520319 0.0
-0.03001511 0.00459512 0.0
-0.03175396 0.00389100 0.0
-0.03314307 0.00310870 0.0
-0.03415538 0.00226585 0.0
-0.03477155 0.00137985 0.0
-0.03497996 0.00046784 0.0
-0.03477657 -0.00045318 0.0
-0.03416498 -0.00136623 0.0
-0.03315643 -0.00225420 0.0
-0.03176993 -0.00309976 0.0
-0.03003235 -0.00388526 0.0
-0.02797852 -0.00459275 0.0
-0.02565127 -0.00520403 0.0
-0.02310143 -0.00570086 0.0
-0.02038756 -0.00606529 0.0
-0.01757550 -0.00628017 0.0
-0.01473755 -0.00632987 0.0
-0.01195119 -0.00620124 0.0
-0.00929716 -0.00588506 0.0
-0.00685666 -0.00537797 0.0
-0.00470748 -0.00468547 0.0
-0.00291857 -0.00382630 0.0
-0.00154282 -0.00283946 0.0
-0.00060772 -0.00179510 0.0
-0.00010411 -0.00081169 0.0
0.00000000 -0.00034017 0.0
-0.00022614 0.00033904 0.0
-0.00101541 0.00160911 0.0
-0.00235377 0.00314323 0.0
-0.00422381 0.00471866 0.0
-0.00657992 0.00618941 0.0
-0.00935423 0.00746373 0.0
-0.01246343 0.00848781 0.0
-0.01581509 0.00923432 0.0
-0.01931300 0.00969440 0.0
-0.02286127 0.00987203 0.0
-0.02636755 0.00978010 0.0
-0.02974528 0.00943757 0.0
-0.03291531 0.00886734 0.0
-0.03580692 0.00809480 0.0
-0.03835850 0.00714670 0.0
-0.04051783 0.00605033 0.0
-0.04224225 0.00483311 0.0
-0.04349861 0.00352221 0.0
-0.04426324 0.00214449 0.0
-0.04452187 0.00072647 0.0
-0.04426957 -0.00070549 0.0
-0.04351074 -0.00212506 0.0
-0.04225918 -0.00350575 0.0
-0.04053819 -0.00482075 0.0
-0.03838064 -0.00604281 0.0
-0.03582911 -0.00714428 0.0
-0.03293586 -0.00809727 0.0
-0.02976276 -0.00887396 0.0
-0.02638087 -0.00944717 0.0
-0.02286985 -0.00979119 0.0
-0.01931680 -0.00988292 0.0
-0.01581464 -0.00970340 0.0
-0.01245972 -0.00923997 0.0
-0.00934864 -0.00848905 0.0
-0.00657398 -0.00746013 0.0
-0.00421894 -0.00618133 0.0
-0.00235105 -0.00470736 0.0
-0.00101526 -0.00313089 0.0
-0.00022816 -0.00159879 0.0
0.00000000 -0.00070863 0.0
-0.00034430 0.00070757 0.0
-0.00141613 0.00268094 0.0
-0.00315779 0.00488489 0.0
-0.00552048 0.00708135 0.0
-0.00843607 0.00910500 0.0
-0.01181900 0.01084666 0.0
-0.01557063 0.01223944 0.0
-0.01958425 0.01324794 0.0
-0.02374985 0.01386000 0.0
-0.02795818 0.01408035 0.0
-0.03210400 0.01392592 0.0
-0.03608861 0.01342217 0.0
-0.03982162 0.01260035 0.0
-0.04322220 0.01149539 0.0
-0.04621983 0.01014432 0.0
-0.04875469 0.00858519 0.0
-0.05077787 0.00685630 0.0
-0.05225137 0.00499571 0.0
-0.05314804 0.00304115 0.0
-0.05345147 0.00102991 0.0
-0.05315602 -0.00100094 0.0
-0.05226671 -0.00301436 0.0
-0.05079938 -0.00497308 0.0
-0.04878072 -0.00683941 0.0
-0.04624841 -0.00857512 0.0
-0.04325123 -0.01014147 0.0
-0.03984903 -0.01149947 0.0
-0.03611259 -0.01261040 0.0
-0.03212315 -0.01343661 0.0
-0.02797167 -0.01394268 0.0
-0.02375747 -0.01409711 0.0
-0.01958645 -0.01387443 0.0
-0.01556845 -0.01325797 0.0
-0.01181396 -0.01224354 0.0
-0.00842992 -0.01084418 0.0
-0.00551493 -0.00909631 0.0
-0.00315424 -0.00706805 0.0
-0.00141531 -0.00486982 0.0
-0.00034603 -0.00266807 0.0
0.00000000 -0.00118421 0.0
-0.00045362 0.00118329 0.0
-0.00179851 0.00402583 0.0
-0.00393760 0.00702398 0.0
-0.00678936 0.00993311 0.0
-0.01026012 0.01257576 0.0
-0.01424382 0.01483036 0.0
-0.01862462 0.01662023 0.0
-0.02328071 0.01790403 0.0
-0.02808840 0.01866769 0.0
-0.03292587 0.01891782 0.0
-0.03767632 0.01867637 0.0
-0.04223047 0.01797633 0.0
-0.04648844 0.01685832 0.0
-0.05036098 0.01536792 0.0
-0.05377029 0.01355363 0.0
-0.05665045 0.01146536 0.0
-0.05894758 0.00915343 0.0
-0.06061983 0.00666797 0.0
-0.06163731 0.00405863 0.0
-0.06198198 0.00137457 0.0
-0.06164757 -0.00133536 0.0
-0.06063960 -0.00402233 0.0
-0.05897543 -0.00663725 0.0
-0.05668440 -0.00913045 0.0
-0.05380795 -0.01145157 0.0
-0.05039976 -0.01354965 0.0
-0.04652580 -0.01537343 0.0
-0.04226411 -0.01687210 0.0
-0.03770438 -0.01799633 0.0
-0.03294714 -0.01869991 0.0
-0.02810241 -0.01894185 0.0
-0.02328776 -0.01868908 0.0
-0.01862574 -0.01791998 0.0
-0.01424066 -0.01662863 0.0
-0.01025468 -0.01483016 0.0
-0.00678372 -0.01256727 0.0
-0.00393356 -0.00991821 0.0
-0.00179720 -0.00700618 0.0
-0.00045512 -0.00401014 0.0
0.00000000 -0.00175964 0.0
-0.00055538 0.00175892 0.0
-0.00216366 0.00563411 0.0
-0.00469352 0.00955384 0.0
-0.00803148 0.01327106 0.0
-0.01205684 0.01660113 0.0
-0.01664087 0.01941439 0.0
-0.02164853 0.02162789 0.0
-0.02694151 0.02319702 0.0
-0.03238177 0.02410795 0.0
-0.03783485 0.02437090 0.0
-0.04317285 0.02401436 0.0
-0.04827676 0.02308024 0.0
-0.05303829 0.02161985 0.0
-0.05736101 0.01969064 0.0
-0.06116109 0.01735371 0.0
-0.06436768 0.01467195 0.0
-0.06692301 0.01170875 0.0
-0.06878224 0.00852720 0.0
-0.06991340 0.00518979 0.0
-0.07029717 0.00175834 0.0
-0.06992681 -0.00170571 0.0
-0.06880817 -0.00514097 0.0
-0.06695973 -0.00848570 0.0
-0.06441276 -0.01167741 0.0
-0.06121158 -0.01465274 0.0
-0.05741372 -0.01734751 0.0
-0.05309001 -0.01969715 0.0
-0.04832451 -0.02163760 0.0
-0.04321415 -0.02310668 0.0
-0.03786798 -0.02404609 0.0
-0.03240583 -0.02440399 0.0
-0.02695655 -0.02413835 0.0
-0.02165552 -0.02322101 0.0
-0.01664156 -0.02164258 0.0
-0.01205354 -0.01941819 0.0
-0.00802668 -0.01659412 0.0
-0.00468954 -0.01325535 0.0
-0.00216212 -0.00953360 0.0
-0.00055674 -0.00561553 0.0
0.00000000 -0.00243039 0.0
-0.00065217 0.00242991 0.0
-0.00251792 0.00749986 0.0
-0.00543565 0.01247157 0.0
-0.00926124 0.01709666 0.0
-0.01384624 0.02118612 0.0
-0.01903754 0.02460569 0.0
-0.02467905 0.02726940 0.0
-0.03061438 0.02913235 0.0
-0.03668999 0.03018356 0.0
-0.04275822 0.03043912 0.0
-0.04867998 0.02993612 0.0
-0.05432692 0.02872718 0.0
-0.05958296 0.02687589 0.0
-0.06434536 0.02445304 0.0
-0.06852526 0.02153361 0.0
-0.07204785 0.01819454 0.0
-0.07485233 0.01451323 0.0
-0.07689168 0.01056655 0.0
-0.07813239 0.00643050 0.0
-0.07855424 0.00218019 0.0
-0.07815013 -0.00210982 0.0
-0.07692604 -0.00636505 0.0
-0.07490120 -0.01051054 0.0
-0.07210823 -0.01447038 0.0
-0.06859351 -0.01816747 0.0
-0.06441745 -0.02152357 0.0
-0.05965479 -0.02445981 0.0
-0.05439463 -0.02689775 0.0
-0.04874028 -0.02876104 0.0
-0.04280862 -0.02997776 0.0
-0.03672901 -0.03048359 0.0
-0.03064170 -0.03022567 0.0
-0.02469546 -0.02916725 0.0
-0.01904487 -0.02729317 0.0
-0.01384709 -0.02461596 0.0
-0.00925863 -0.02118258 0.0
-0.00543250 -0.01708148 0.0
-0.00251650 -0.01244959 0.0
-0.00065348 -0.00747856 0.0
0.00000000 -0.00319488 0.0
-0.00074690 0.00319468 0.0
-0.00286963 0.00962258 0.0
-0.00617857 0.01578051 0.0
-0.01049982 0.02141791 0.0
-0.01565652 0.02634282 0.0
-0.02146974 0.03041891 0.0
-0.02776054 0.03356020 0.0
-0.03435277 0.03572458 0.0
-0.04107609 0.03690688 0.0
-0.04776879 0.03713183 0.0
-0.05428025 0.03644758 0.0
-0.06047279 0.03491972 0.0
-0.06622302 0.03262612 0.0
-0.07142252 0.02965254 0.0
-0.07597818 0.02608927 0.0
-0.07981211 0.02202847 0.0
-0.08286132 0.01756243 0.0
-0.08507727 0.01278251 0.0
-0.08642550 0.00777873 0.0
-0.08688519 0.00263988 0.0
-0.08644897 -0.00254605 0.0
-0.08512285 -0.00769118 0.0
-0.08292637 -0.01270701 0.0
-0.07989294 -0.01750381 0.0
-0.07607024 -0.02199018 0.0
-0.07152073 -0.02607308 0.0
-0.06632215 -0.02965839 0.0
-0.06056784 -0.03265206 0.0
-0.05436680 -0.03496208 0.0
-0.04784336 -0.03650120 0.0
-0.04113639 -0.03719056 0.0
-0.03439789 -0.03696416 0.0
-0.02779100 -0.03577414 0.0
-0.02148739 -0.03359678 0.0
-0.01566427 -0.03043908 0.0
-0.01050124 -0.02634561 0.0
-0.00617734 -0.02140538 0.0
-0.00286884 -0.01575809 0.0
-0.00074829 -0.00959911 0.0
0.00000000 -0.00405446 0.0
-0.00084243 0.00405458 0.0
-0.00322769 0.01200783 0.0
-0.00693857 0.01949139 0.0
-0.01177130 0.02625064 0.0
-0.01751966 0.03209118 0.0
-0.02397727 0.03687651 0.0
-0.03094054 0.04052346 0.0
-0.03821185 0.04299589 0.0
-0.04560266 0.04429769 0.0
-0.05293627 0.04446544 0.0
-0.06005003 0.04356134 0.0
-0.06679692 0.04166661 0.0
-0.07304652 0.03887571 0.0
-0.07868536 0.03529138 0.0
-0.08361686 0.03102077 0.0
-0.08776086 0.02617248 0.0
-0.09105300 0.02085458 0.0
-0.09344399 0.01517349 0.0
-0.09489890 0.00923364 0.0
-0.09539668 0.00313766 0.0
-0.09492977 -0.00301296 0.0
-0.09350405 -0.00911689 0.0
-0.09113903 -0.01507204 0.0
-0.08786825 -0.02077459 0.0
-0.08373993 -0.02611849 0.0
-0.07881776 -0.03099526 0.0
-0.07318159 -0.03529456 0.0
-0.06692819 -0.03890546 0.0
-0.06017165 -0.04171862 0.0
-0.05304346 -0.04362939 0.0
-0.04569203 -0.04454198 0.0
-0.03828169 -0.04437450 0.0
-0.03099091 -0.04306493 0.0
-0.02400993 -0.04057777 0.0
-0.01753781 -0.03691119 0.0
-0.01177915 -0.03210426 0.0
-0.00694068 -0.02624385 0.0
-0.00322819 -0.01947058 0.0
-0.00084407 -0.01198322 0.0
0.00000000 -0.00501325 0.0
-0.00094143 0.00501371 0.0
-0.00360086 0.01466725 0.0
-0.00773211 0.02362264 0.0
-0.01310042 0.03161894 0.0
-0.01946850 0.03845925 0.0
-0.02660060 0.04400861 0.0
-0.03426649 0.04818935 0.0
-0.04224528 0.05097469 0.0
-0.05032882 0.05238123 0.0
-0.05832445 0.05246107 0.0
-0.06605703 0.05129392 0.0
-0.07337020 0.04897978 0.0
-0.08012690 0.04563241 0.0
-0.08620930 0.04137378 0.0
-0.09151820 0.03632967 0.0
-0.09597211 0.03062639 0.0
-0.09950620 0.02438866 0.0
-0.10207117 0.01773846 0.0
-0.10363228 0.01079475 0.0
-0.10416858 0.00367396 0.0
-0.10367245 -0.00350909 0.0
-0.10214947 -0.01063987 0.0
-0.09961867 -0.01760285 0.0
-0.09611307 -0.02428018 0.0
-0.09168064 -0.03055092 0.0
-0.08638526 -0.03629063 0.0
-0.08030798 -0.04137183 0.0
-0.07354811 -0.04566533 0.0
-0.06622415 -0.04904258 0.0
-0.05847432 -0.05137922 0.0
-0.05045663 -0.05255966 0.0
-0.04234823 -0.05248291 0.0
-0.03434392 -0.05106922 0.0
-0.02665405 -0.04826764 0.0
-0.01950142 -0.04406382 0.0
-0.01311770 -0.03848798 0.0
-0.00773938 -0.03162217 0.0
-0.00360351 -0.02360645 0.0
-0.00094357 -0.01464316 0.0
0.00000000 -0.00607787 0.0
-0.00104639 0.00607872 0.0
-0.00399748 0.01761834 0.0
-0.00857515 0.02820032 0.0
-0.01451124 0.03755503 0.0
-0.02153495 0.04548297 0.0
-0.02937868 0.05185233 0.0
-0.03778324 0.05659392 0.0
-0.04650257 0.05969401 0.0
-0.05530746 0.06118612 0.0
-0.06398841 0.06114202 0.0
-0.07235748 0.05966298 0.0
-0.08024913 0.05687143 0.0
-0.08752029 0.05290357 0.0
-0.09404961 0.04790311 0.0
-0.09973635 0.04201641 0.0
-0.10449882 0.03538886 0.0
-0.10827277 0.02816261 0.0
-0.11100983 0.02047552 0.0
-0.11267614 0.01246106 0.0
-0.11325129 0.00424911 0.0
-0.11272773 -0.00403265 0.0
-0.11111053 -0.01225707 0.0
-0.10841776 -0.02029562 0.0
-0.10468119 -0.02801675 0.0
-0.09994749 -0.03528463 0.0
-0.09427968 -0.04195844 0.0
-0.08775880 -0.04789271 0.0
-0.08048561 -0.05293852 0.0
-0.07258209 -0.05694610 0.0
-0.06419264 -0.05976867 0.0
-0.05548467 -0.06126763 0.0
-0.04664849 -0.06131908 0.0
-0.03789626 -0.05982146 0.0
-0.02945988 -0.05670401 0.0
-0.02158796 -0.05193575 0.0
-0.01454165 -0.04553428 0.0
-0.00858980 -0.03757401 0.0
-0.00400334 -0.02819291 0.0
-0.00104932 -0.01759718 0.0
0.00000000 -0.00725735 0.0
-0.00115959 0.00725863 0.0
-0.00442536 0.02088410 0.0
-0.00948271 0.03325767 0.0
-0.01602646 0.04409877 0.0
-0.02374888 0.05320538 0.0
-0.03234735 0.06045081 0.0
-0.04153110 0.06577767 0.0
-0.05102676 0.06918967 0.0
-0.06058266 0.07074201 0.0
-0.06997172 0.07053108 0.0
-0.07899311 0.06868438 0.0
-0.08747263 0.06535095 0.0
-0.09526207 0.06069301 0.0
-0.10223785 0.05487889 0.0
-0.10829905 0.04807760 0.0
-0.11336517 0.04045498 0.0
-0.11737388 0.03217133 0.0
-0.12027886 0.02338050 0.0
-0.12204797 0.01423017 0.0
-0.12266188 0.00486302 0.0
-0.12211323 -0.00458130 0.0
-0.12040641 -0.01396389 0.0
-0.11755794 -0.02314410 0.0
-0.11359740 -0.03197729 0.0
-0.10856902 -0.04031300 0.0
-0.10253357 -0.04799390 0.0
-0.09557061 -0.05485566 0.0
-0.08778091 -0.06072822 0.0
-0.07928867 -0.06543834 0.0
-0.07024349 -0.06881385 0.0
-0.06082175 -0.07068938 0.0
-0.05122703 -0.07091380 0.0
-0.04168958 -0.06935890 0.0
-0.03246446 -0.06592914 0.0
-0.02382823 -0.06057197 0.0
-0.01607440 -0.05328811 0.0
-0.00950744 -0.04414098 0.0
-0.00443573 -0.03326461 0.0
-0.00116367 -0.02086924 0.0
0.00000000 -0.00856288 0.0
-0.00128314 0.00856464 0.0
-0.00489177 0.02449272 0.0
-0.01046874 0.03883464 0.0
-0.01766695 0.05129698 0.0
-0.02613724 0.06167568 0.0
-0.03553814 0.06985170 0.0
-0.04554413 0.07578365 0.0
-0.05585228 0.07949782 0.0
-0.06618707 0.08107680 0.0
-0.07630338 0.08064738 0.0
-0.08598776 0.07836875 0.0
-0.09505825 0.07442144 0.0
-0.10336292 0.06899769 0.0
-0.11077764 0.06229360 0.0
-0.11720314 0.05450310 0.0
-0.12256193 0.04581377 0.0
-0.12679524 0.03640464 0.0
-0.12986016 0.02644543 0.0
-0.13172733 0.01609734 0.0
-0.13237912 0.00551481 0.0
-0.13180858 -0.00515184 0.0
-0.13001916 -0.01575331 0.0
-0.12702513 -0.02613812 0.0
-0.12285284 -0.03614958 0.0
-0.11754259 -0.04562325 0.0
-0.11115121 -0.05438528 0.0
-0.10375491 -0.06225196 0.0
-0.09545258 -0.06903055 0.0
-0.08636888 -0.07452204 0.0
-0.07665722 -0.07852551 0.0
-0.06650193 -0.08084467 0.0
-0.05611965 -0.08129608 0.0
-0.04575930 -0.07971925 0.0
-0.03570049 -0.07598794 0.0
-0.02625020 -0.07002225 0.0
-0.01773755 -0.06180076 0.0
-0.01050671 -0.05137182 0.0
-0.00490819 -0.03886313 0.0
-0.00128880 -0.02448863 0.0
0.00000000 -0.01000773 0.0
-0.00141900 0.01001005 0.0
-0.00540348 0.02847720 0.0
-0.01154607 0.04497723 0.0
-0.01945149 0.05920240 0.0
-0.02872355 0.07094774 0.0
-0.03897722 0.08010537 0.0
-0.04984862 0.08665506 0.0
-0.06100285 0.09065205 0.0
-0.07213930 0.09221325 0.0
-0.08299464 0.09150272 0.0
-0.09334358 0.08871770 0.0
-0.10299793 0.08407578 0.0
-0.11180408 0.07780383 0.0
-0.11963960 0.07012913 0.0
-0.12640928 0.06127278 0.0
-0.13204094 0.05144542 0.0
-0.13648138 0.04084508 0.0
-0.13969283 0.02965689 0.0
-0.14164994 0.01805445 0.0
-0.14233757 0.00620243 0.0
-0.14174944 -0.00573997 0.0
-0.13988777 -0.01761498 0.0
-0.13676379 -0.02926210 0.0
-0.13239927 -0.04051410 0.0
-0.12682890 -0.05119362 0.0
-0.12010339 -0.06111079 0.0
-0.11229331 -0.07006204 0.0
-0.10349315 -0.07783071 0.0
-0.09382569 -0.08418949 0.0
-0.08344602 -0.08890518 0.0
-0.07254494 -0.09174575 0.0
-0.06135131 -0.09248970 0.0
-0.05013291 -0.09093766 0.0
-0.03919527 -0.08692558 0.0
-0.02887834 -0.08033918 0.0
-0.01955064 -0.07112846 0.0
-0.01160095 -0.05932151 0.0
-0.00542774 -0.04503634 0.0
-0.00142675 -0.02848963 0.0
0.00000000 -0.01160717 0.0
-0.00156903 0.01161012 0.0
-0.00596683 0.03287500 0.0
-0.01272645 0.05173685 0.0
-0.02139665 0.06787259 0.0
-0.03152739 0.08107848 0.0
-0.04268447 0.09126245 0.0
-0.05446158 0.09843217 0.0
-0.06648932 0.10267978 0.0
-0.07844097 0.10416490 0.0
-0.09003535 0.10309709 0.0
-0.10103682 0.09971918 0.0
-0.11125321 0.09429217 0.0
-0.12053203 0.08708264 0.0
-0.12875563 0.07835273 0.0
-0.13583589 0.06835304 0.0
-0.14170877 0.05731830 0.0
-0.14632919 0.04546550 0.0
-0.14966655 0.03299424 0.0
-0.15170103 0.02008893 0.0
-0.15242088 0.00692229 0.0
-0.15182083 -0.00634002 0.0
-0.14990153 -0.01953429 0.0
-0.14667025 -0.03249338 0.0
-0.14214267 -0.04504168 0.0
-0.13634573 -0.05699056 0.0
-0.12932152 -0.06813500 0.0
-0.12113195 -0.07825162 0.0
-0.11186404 -0.08709862 0.0
-0.10163551 -0.09441802 0.0
-0.09060023 -0.09994046 0.0
-0.07895311 -0.10339287 0.0
-0.06693374 -0.10450907 0.0
-0.05482843 -0.10304297 0.0
-0.04296970 -0.09878431 0.0
-0.03173314 -0.09157573 0.0
-0.02153097 -0.08133062 0.0
-0.01280241 -0.06805007 0.0
-0.00600101 -0.05183774 0.0
-0.00157946 -0.03291118 0.0
0.00000000 -0.01337842 0.0
-0.00173503 0.01338209 0.0
-0.00658787 0.03772784 0.0
-0.01402066 0.05916964 0.0
-0.02351677 0.07736870 0.0
-0.03456406 0.09212576 0.0
-0.04667264 0.10337103 0.0
-0.05938919 0.11114872 0.0
-0.07230729 0.11559788 0.0
-0.08507356 0.11693117 0.0
-0.09739001 0.11541355 0.0
-0.10901303 0.11134219 0.0
-0.11974974 0.10502887 0.0
-0.12945251 0.09678542 0.0
-0.13801244 0.08691266 0.0
-0.14535232 0.07569292 0.0
-0.15141974 0.06338571 0.0
-0.15618074 0.05022650 0.0
-0.15961430 0.03642781 0.0
-0.16170793 0.02218255 0.0
-0.16245435 0.00766872 0.0
-0.16184965 -0.00694472 0.0
-0.15989261 -0.02149133 0.0
-0.15658546 -0.03580053 0.0
-0.15193600 -0.04969113 0.0
-0.14596102 -0.06296554 0.0
-0.13869089 -0.07540512 0.0
-0.13017532 -0.08676719 0.0
-0.12048990 -0.09678404 0.0
-0.10974322 -0.10516470 0.0
-0.09808405 -0.11159963 0.0
-0.08570800 -0.11576893 0.0
-0.07286297 -0.11735409 0.0
-0.05985267 -0.11605327 0.0
-0.04703729 -0.11159969 0.0
-0.03483067 -0.10378235 0.0
-0.02369353 -0.09246776 0.0
-0.01412235 -0.07762125 0.0
-0.00663429 -0.05932579 0.0
-0.00174882 -0.03779665 0.0
0.00000000 -0.01534068 0.0
-0.00191881 0.01534519 0.0
-0.00727250 0.04308152 0.0
-0.01543871 0.06733585 0.0
-0.02582399 0.08775398 0.0
-0.03784426 0.10414604 0.0
-0.05094639 0.11647315 0.0