# vtk DataFile Version 4.0
2D velocity field
ASCII
DATASET STRUCTURED_GRID
DIMENSIONS 40 40 1
POINTS 1600 float
0.00000000 0.00000000 1.0
1.00000000 0.00000000 1.0
2.00000000 0.00000000 1.0
3.00000000 0.00000000 1.0
4.00000000 0.00000000 1.0
5.00000000 0.00000000 1.0
6.00000000 0.00000000 1.0
7.00000000 0.00000000 1.0
8.00000000 0.00000000 1.0
9.00000000 0.00000000 1.0
10.00000000 0.00000000 1.0
11.00000000 0.00000000 1.0
12.00000000 0.00000000 1.0
13.00000000 0.00000000 1.0
14.00000000 0.00000000 1.0
15.00000000 0.00000000 1.0
16.00000000 0.00000000 1.0
17.00000000 0.00000000 1.0
18.00000000 0.00000000 1.0
19.00000000 0.00000000 1.0
20.00000000 0.00000000 1.0
21.00000000 0.00000000 1.0
22.00000000 0.00000000 1.0
23.00000000 0.00000000 1.0
24.00000000 0.00000000 1.0
25.00000000 0.00000000 1.0
26.00000000 0.00000000 1.0
27.00000000 0.00000000 1.0
28.00000000 0.00000000 1.0
29.00000000 0.00000000 1.0
30.00000000 0.00000000 1.0
31.00000000 0.00000000 1.0
32.00000000 0.00000000 1.0
33.00000000 0.00000000 1.0
34.00000000 0.00000000 1.0
35.00000000 0.00000000 1.0
36.00000000 0.00000000 1.0
37.00000000 0.00000000 1.0
38.00000000 0.00000000 1.0
39.00000000 0.00000000 1.0
0.00000000 1.00000000 1.0
1.00000000 1.00000000 1.0
2.00000000 1.00000000 1.0
3.00000000 1.00000000 1.0
4.00000000 1.00000000 1.0
5.00000000 1.00000000 1.0
6.00000000 1.00000000 1.0
7.00000000 1.00000000 1.0
8.00000000 1.00000000 1.0
9.00000000 1.00000000 1.0
10.00000000 1.00000000 1.0
11.00000000 1.00000000 1.0
12.00000000 1.00000000 1.0
13.00000000 1.00000000 1.0
14.00000000 1.00000000 1.0
15.00000000 1.00000000 1.0
16.00000000 1.00000000 1.0
17.00000000 1.00000000 1.0
18.00000000 1.00000000 1.0
19.00000000 1.00000000 1.0
20.00000000 1.00000000 1.0
21.00000000 1.00000000 1.0
22.00000000 1.00000000 1.0
23.00000000 1.00000000 1.0
24.00000000 1.00000000 1.0
25.00000000 1.00000000 1.0
26.00000000 1.00000000 1.0
27.00000000 1.00000000 1.0
28.00000000 1.00000000 1.0
29.00000000 1.00000000 1.0
30.00000000 1.00000000 1.0
31.00000000 1.00000000 1.0
32.00000000 1.00000000 1.0
33.00000000 1.00000000 1.0
34.00000000 1.00000000 1.0
35.00000000 1.00000000 1.0
36.00000000 1.00000000 1.0
37.00000000 1.00000000 1.0
38.00000000 1.00000000 1.0
39.00000000 1.00000000 1.0
0.00000000 2.00000000 1.0
1.00000000 2.00000000 1.0
2.00000000 2.00000000 1.0
3.00000000 2.00000000 1.0
4.00000000 2.00000000 1.0
5.00000000 2.00000000 1.0
6.00000000 2.00000000 1.0
7.00000000 2.00000000 1.0
8.00000000 2.00000000 1.0
9.00000000 2.00000000 1.0
10.00000000 2.00000000 1.0
11.00000000 2.00000000 1.0
12.00000000 2.00000000 1.0
13.00000000 2.00000000 1.0
14.00000000 2.00000000 1.0
15.00000000 2.00000000 1.0
16.00000000 2.00000000 1.0
17.00000000 2.00000000 1.0
18.00000000 2.00000000 1.0
19.00000000 2.00000000 1.0
20.00000000 2.00000000 1.0
21.00000000 2.00000000 1.0
22.00000000 2.00000000 1.0
23.00000000 2.00000000 1.0
24.00000000 2.00000000 1.0
25.00000000 2.00000000 1.0
26.00000000 2.00000000 1.0
27.00000000 2.00000000 1.0
28.00000000 2.00000000 1.0
29.00000000 2.00000000 1.0
30.00000000 2.00000000 1.0
31.00000000 2.00000000 1.0
32.00000000 2.00000000 1.0
33.00000000 2.00000000 1.0
34.00000000 2.00000000 1.0
35.00000000 2.00000000 1.0
36.00000000 2.00000000 1.0
37.00000000 2.00000000 1.0
38.00000000 2.00000000 1.0
39.00000000 2.00000000 1.0
0.00000000 3.00000000 1.0
1.00000000 3.00000000 1.0
2.00000000 3.00000000 1.0
3.00000000 3.00000000 1.0
4.00000000 3.00000000 1.0
5.00000000 3.00000000 1.0
6.00000000 3.00000000 1.0
7.00000000 3.00000000 1.0
8.00000000 3.00000000 1.0
9.00000000 3.00000000 1.0
10.00000000 3.00000000 1.0
11.00000000 3.00000000 1.0
12.00000000 3.00000000 1.0
13.00000000 3.00000000 1.0
14.00000000 3.00000000 1.0
15.00000000 3.00000000 1.0
16.00000000 3.00000000 1.0
17.00000000 3.00000000 1.0
18.00000000 3.00000000 1.0
19.00000000 3.00000000 1.0
20.00000000 3.00000000 1.0
21.00000000 3.00000000 1.0
22.00000000 3.00000000 1.0
23.00000000 3.00000000 1.0
24.00000000 3.00000000 1.0
25.00000000 3.00000000 1.0
26.00000000 3.00000000 1.0
27.00000000 3.00000000 1.0
28.00000000 3.00000000 1.0
29.00000000 3.00000000 1.0
30.00000000 3.00000000 1.0
31.00000000 3.00000000 1.0
32.00000000 3.00000000 1.0
33.00000000 3.00000000 1.0
34.00000000 3.00000000 1.0
35.00000000 3.00000000 1.0
36.00000000 3.00000000 1.0
37.00000000 3.00000000 1.0
38.00000000 3.00000000 1.0
39.00000000 3.00000000 1.0
0.00000000 4.00000000 1.0
1.00000000 4.00000000 1.0
2.00000000 4.00000000 1.0
3.00000000 4.00000000 1.0
4.00000000 4.00000000 1.0
5.00000000 4.00000000 1.0
6.00000000 4.00000000 1.0
7.00000000 4.00000000 1.0
8.00000000 4.00000000 1.0
9.00000000 4.00000000 1.0
10.00000000 4.00000000 1.0
11.00000000 4.00000000 1.0
12.00000000 4.00000000 1.0
13.00000000 4.00000000 1.0
14.00000000 4.00000000 1.0
15.00000000 4.00000000 1.0
16.00000000 4.00000000 1.0
17.00000000 4.00000000 1.0
18.00000000 4.00000000 1.0
19.00000000 4.00000000 1.0
20.00000000 4.00000000 1.0
21.00000000 4.00000000 1.0
22.00000000 4.00000000 1.0
23.00000000 4.00000000 1.0
24.00000000 4.00000000 1.0
25.00000000 4.00000000 1.0
26.00000000 4.00000000 1.0
27.00000000 4.00000000 1.0
28.00000000 4.00000000 1.0
29.00000000 4.00000000 1.0
30.00000000 4.00000000 1.0
31.00000000 4.00000000 1.0
32.00000000 4.00000000 1.0
33.00000000 4.00000000 1.0
34.00000000 4.00000000 1.0
35.00000000 4.00000000 1.0
36.00000000 4.00000000 1.0
37.00000000 4.00000000 1.0
38.00000000 4.00000000 1.0
39.00000000 4.00000000 1.0
0.00000000 5.00000000 1.0
1.00000000 5.00000000 1.0
2.00000000 5.00000000 1.0
3.00000000 5.00000000 1.0
4.00000000 5.00000000 1.0
5.00000000 5.00000000 1.0
6.00000000 5.00000000 1.0
7.00000000 5.00000000 1.0
8.00000000 5.00000000 1.0
9.00000000 5.00000000 1.0
10.00000000 5.00000000 1.0
11.00000000 5.00000000 1.0
12.00000000 5.00000000 1.0
13.00000000 5.00000000 1.0
14.00000000 5.00000000 1.0
15.00000000 5.00000000 1.0
16.00000000 5.00000000 1.0
17.00000000 5.00000000 1.0
18.00000000 5.00000000 1.0
19.00000000 5.00000000 1.0
20.00000000 5.00000000 1.0
21.00000000 5.00000000 1.0
22.00000000 5.00000000 1.0
23.00000000 5.00000000 1.0
24.00000000 5.00000000 1.0
25.00000000 5.00000000 1.0
26.00000000 5.00000000 1.0
27.00000000 5.00000000 1.0
28.00000000 5.00000000 1.0
29.00000000 5.00000000 1.0
30.00000000 5.00000000 1.0
31.00000000 5.00000000 1.0
32.00000000 5.00000000 1.0
33.00000000 5.00000000 1.0
34.00000000 5.00000000 1.0
35.00000000 5.00000000 1.0
36.00000000 5.00000000 1.0
37.00000000 5.00000000 1.0
38.00000000 5.00000000 1.0
39.00000000 5.00000000 1.0
0.00000000 6.00000000 1.0
1.00000000 6.00000000 1.0
2.00000000 6.00000000 1.0
3.00000000 6.00000000 1.0
4.00000000 6.00000000 1.0
5.00000000 6.00000000 1.0
6.00000000 6.00000000 1.0
7.00000000 6.00000000 1.0
8.00000000 6.00000000 1.0
9.00000000 6.00000000 1.0
10.00000000 6.00000000 1.0
11.00000000 6.00000000 1.0
12.00000000 6.00000000 1.0
13.00000000 6.00000000 1.0
14.00000000 6.00000000 1.0
15.00000000 6.00000000 1.0
16.00000000 6.00000000 1.0
17.00000000 6.00000000 1.0
18.00000000 6.00000000 1.0
19.00000000 6.00000000 1.0
20.00000000 6.00000000 1.0
21.00000000 6.00000000 1.0
22.00000000 6.00000000 1.0
23.00000000 6.00000000 1.0
24.00000000 6.00000000 1.0
25.00000000 6.00000000 1.0
26.00000000 6.00000000 1.0
27.00000000 6.00000000 1.0
28.00000000 6.00000000 1.0
29.00000000 6.00000000 1.0
30.00000000 6.00000000 1.0
31.00000000 6.00000000 1.0
32.00000000 6.00000000 1.0
33.00000000 6.00000000 1.0
34.00000000 6.00000000 1.0
35.00000000 6.00000000 1.0
36.00000000 6.00000000 1.0
37.00000000 6.00000000 1.0
38.00000000 6.00000000 1.0
39.00000000 6.00000000 1.0
0.00000000 7.00000000 1.0
1.00000000 7.00000000 1.0
2.00000000 7.00000000 1.0
3.00000000 7.00000000 1.0
4.00000000 7.00000000 1.0
5.00000000 7.00000000 1.0
6.00000000 7.00000000 1.0
7.00000000 7.00000000 1.0
8.00000000 7.00000000 1.0
9.00000000 7.00000000 1.0
10.00000000 7.00000000 1.0
11.00000000 7.00000000 1.0
12.00000000 7.00000000 1.0
13.00000000 7.00000000 1.0
14.00000000 7.00000000 1.0
15.00000000 7.00000000 1.0
16.00000000 7.00000000 1.0
17.00000000 7.00000000 1.0
18.00000000 7.00000000 1.0
19.00000000 7.00000000 1.0
20.00000000 7.00000000 1.0
21.00000000 7.00000000 1.0
22.00000000 7.00000000 1.0
23.00000000 7.00000000 1.0
24.00000000 7.00000000 1.0
25.00000000 7.00000000 1.0
26.00000000 7.00000000 1.0
27.00000000 7.00000000 1.0
28.00000000 7.00000000 1.0
29.00000000 7.00000000 1.0
30.00000000 7.00000000 1.0
31.00000000 7.00000000 1.0
32.00000000 7.00000000 1.0
33.00000000 7.00000000 1.0
34.00000000 7.00000000 1.0
35.00000000 7.00000000 1.0
36.00000000 7.00000000 1.0
37.00000000 7.00000000 1.0
38.00000000 7.00000000 1.0
39.00000000 7.00000000 1.0
0.00000000 8.00000000 1.0
1.00000000 8.00000000 1.0
2.00000000 8.00000000 1.0
3.00000000 8.00000000 1.0
4.00000000 8.00000000 1.0
5.00000000 8.00000000 1.0
6.00000000 8.00000000 1.0
7.00000000 8.00000000 1.0
8.00000000 8.00000000 1.0
9.00000000 8.00000000 1.0
10.00000000 8.00000000 1.0
11.00000000 8.00000000 1.0
12.00000000 8.00000000 1.0
13.00000000 8.00000000 1.0
14.00000000 8.00000000 1.0
15.00000000 8.00000000 1.0
16.00000000 8.00000000 1.0
17.00000000 8.00000000 1.0
18.00000000 8.00000000 1.0
19.00000000 8.00000000 1.0
20.00000000 8.00000000 1.0
21.00000000 8.00000000 1.0
22.00000000 8.00000000 1.0
23.00000000 8.00000000 1.0
24.00000000 8.00000000 1.0
25.00000000 8.00000000 1.0
26.00000000 8.00000000 1.0
27.00000000 8.00000000 1.0
28.00000000 8.00000000 1.0
29.00000000 8.00000000 1.0
30.00000000 8.00000000 1.0
31.00000000 8.00000000 1.0
32.00000000 8.00000000 1.0
33.00000000 8.00000000 1.0
34.00000000 8.00000000 1.0
35.00000000 8.00000000 1.0
36.00000000 8.00000000 1.0
37.00000000 8.00000000 1.0
38.00000000 8.00000000 1.0
39.00000000 8.00000000 1.0
0.00000000 9.00000000 1.0
1.00000000 9.00000000 1.0
2.00000000 9.00000000 1.0
3.00000000 9.00000000 1.0
4.00000000 9.00000000 1.0
5.00000000 9.00000000 1.0
6.00000000 9.00000000 1.0
7.00000000 9.00000000 1.0
8.00000000 9.00000000 1.0
[...]
POINT_DATA 1600
VECTORS velocity double
0.00000000 0.00003250 0.0
0.00000027 -0.00003264 0.0
0.00000052 -0.00001183 0.0
0.00000069 0.00005218 0.0
0.00000074 0.00012938 0.0
0.00000070 0.00020450 0.0
0.00000060 0.00027047 0.0
0.00000044 0.00032421 0.0
0.00000025 0.00036455 0.0
0.00000004 0.00039134 0.0
-0.00000018 0.00040495 0.0
-0.00000041 0.00040608 0.0
-0.00000063 0.00039562 0.0
-0.00000083 0.00037461 0.0
-0.00000102 0.00034417 0.0
-0.00000118 0.00030550 0.0
-0.00000132 0.00025980 0.0
-0.00000143 0.00020833 0.0
-0.00000152 0.00015236 0.0
-0.00000157 0.00009315 0.0
-0.00000158 0.00003197 0.0
-0.00000157 -0.00002989 0.0
-0.00000152 -0.00009114 0.0
-0.00000144 -0.00015051 0.0
-0.00000133 -0.00020670 0.0
-0.00000119 -0.00025841 0.0
-0.00000102 -0.00030436 0.0
-0.00000083 -0.00034326 0.0
-0.00000063 -0.00037386 0.0
-0.00000041 -0.00039495 0.0
-0.00000018 -0.00040540 0.0
0.00000004 -0.00040416 0.0
0.00000025 -0.00039033 0.0
0.00000044 -0.00036324 0.0
0.00000060 -0.00032256 0.0
0.00000071 -0.00026849 0.0
0.00000074 -0.00020223 0.0
0.00000068 -0.00012692 0.0
0.00000052 -0.00004969 0.0
0.00000026 0.00001412 0.0
0.00000000 0.00009889 0.0
0.00010865 -0.00009950 0.0
0.00008540 0.00002598 0.0
-0.00015120 0.00030437 0.0
-0.00063710 0.00063225 0.0
-0.00136754 0.00095339 0.0
-0.00231579 0.00123857 0.0
-0.00344379 0.00147326 0.0
-0.00470827 0.00165095 0.0
-0.00606421 0.00176971 0.0
-0.00746707 0.00183032 0.0
-0.00887416 0.00183530 0.0
-0.01024550 0.00178828 0.0
-0.01154448 0.00169366 0.0
-0.01273824 0.00155635 0.0
-0.01379799 0.00138161 0.0
-0.01469912 0.00117494 0.0
-0.01542141 0.00094198 0.0
-0.01594901 0.00068846 0.0
-0.01627056 0.00042015 0.0
-0.01637916 0.00014290 0.0
-0.01627242 -0.00013747 0.0
-0.01595247 -0.00041507 0.0
-0.01542597 -0.00068402 0.0
-0.01470411 -0.00093844 0.0
-0.01380264 -0.00117242 0.0
-0.01274178 -0.00138012 0.0
-0.01154622 -0.00155577 0.0
-0.01024493 -0.00169376 0.0
-0.00887103 -0.00178872 0.0
-0.00746144 -0.00183567 0.0
-0.00605645 -0.00183019 0.0
-0.00469908 -0.00176867 0.0
-0.00343410 -0.00164868 0.0
-0.00230664 -0.00146959 0.0
-0.00135998 -0.00123352 0.0
-0.00063199 -0.00094718 0.0
-0.00014903 -0.00062536 0.0
0.00008468 -0.00029751 0.0
0.00010588 -0.00002016 0.0
0.00000000 0.00010492 0.0
0.00003311 -0.00010608 0.0
-0.00021060 0.00026970 0.0
-0.00082933 0.00092310 0.0
-0.00186642 0.00166934 0.0
-0.00331297 0.00239994 0.0
-0.00512710 0.00305270 0.0
-0.00724721 0.00359336 0.0
-0.00960091 0.00400466 0.0
-0.01211110 0.00427990 0.0
-0.01470003 0.00441925 0.0
-0.01729208 0.00442735 0.0
-0.01981573 0.00431194 0.0
-0.02220494 0.00408286 0.0
-0.02440005 0.00375146 0.0
-0.02634851 0.00333008 0.0
-0.02800531 0.00283174 0.0
-0.02933327 0.00226994 0.0
-0.03030325 0.00165844 0.0
-0.03089432 0.00101122 0.0
-0.03109377 0.00034235 0.0
-0.03089723 -0.00033401 0.0
-0.03030864 -0.00100365 0.0
-0.02934034 -0.00165233 0.0
-0.02801298 -0.00226579 0.0
-0.02635554 -0.00282986 0.0
-0.02440519 -0.00333048 0.0
-0.02220707 -0.00375388 0.0
-0.01981406 -0.00408677 0.0
-0.01728620 -0.00431658 0.0
-0.01469005 -0.00443182 0.0
-0.01209765 -0.00442258 0.0
-0.00958510 -0.00428121 0.0
-0.00723054 -0.00400325 0.0
-0.00511126 -0.00358887 0.0
-0.00329962 -0.00304516 0.0
-0.00185689 -0.00238991 0.0
-0.00082433 -0.00165792 0.0
-0.00020993 -0.00091192 0.0
0.00003082 -0.00026090 0.0
0.00000000 -0.00002642 0.0
-0.00010683 0.00002496 0.0
-0.00066884 0.00083171 0.0
-0.00175358 0.00200784 0.0
-0.00338867 0.00330443 0.0
-0.00555285 0.00456412 0.0
-0.00818981 0.00568966 0.0
-0.01121988 0.00662344 0.0
-0.01454924 0.00733402 0.0
-0.01807692 0.00780758 0.0
-0.02169999 0.00804232 0.0
-0.02531743 0.00804480 0.0
-0.02883297 0.00782747 0.0
-0.03215711 0.00740701 0.0
-0.03520866 0.00680301 0.0
-0.03791579 0.00603720 0.0
-0.04021678 0.00513273 0.0
-0.04206056 0.00411371 0.0
-0.04340703 0.00300492 0.0
-0.04422734 0.00183153 0.0
-0.04450401 0.00061901 0.0
-0.04423099 -0.00060703 0.0
-0.04341379 -0.00182085 0.0
-0.04206943 -0.00299669 0.0
-0.04022640 -0.00410882 0.0
-0.03792459 -0.00513167 0.0
-0.03521506 -0.00604001 0.0
-0.03215969 -0.00680925 0.0
-0.02883070 -0.00741577 0.0
-0.02530979 -0.00783749 0.0
-0.02168708 -0.00805453 0.0
-0.01805951 -0.00805015 0.0
-0.01452871 -0.00781202 0.0
-0.01119807 -0.00733389 0.0
-0.00816883 -0.00661810 0.0
-0.00553479 -0.00567921 0.0
-0.00337521 -0.00454948 0.0
-0.00174566 -0.00328747 0.0
-0.00066633 -0.00199125 0.0
-0.00010832 -0.00081891 0.0
0.00000000 -0.00030936 0.0
-0.00026152 0.00030780 0.0
-0.00117907 0.00174926 0.0
-0.00276912 0.00359789 0.0
-0.00502777 0.00556309 0.0
-0.00791226 0.00744860 0.0
-0.01134834 0.00912574 0.0
-0.01523881 0.01051391 0.0
-0.01947147 0.01156668 0.0
-0.02392594 0.01226205 0.0
-0.02847925 0.01259563 0.0
-0.03301024 0.01257579 0.0
-0.03740294 0.01222017 0.0
-0.04154916 0.01155323 0.0
-0.04535044 0.01060429 0.0
-0.04871945 0.00940621 0.0
-0.05158100 0.00799428 0.0
-0.05387278 0.00640549 0.0
-0.05554582 0.00467796 0.0
-0.05656485 0.00285057 0.0
-0.05690849 0.00096265 0.0
-0.05656938 -0.00094614 0.0
-0.05555424 -0.00283598 0.0
-0.05388392 -0.00466702 0.0
-0.05159325 -0.00639949 0.0
-0.04873094 -0.00799397 0.0
-0.04535929 -0.00941166 0.0
-0.04155367 -0.01061487 0.0
-0.03740182 -0.01156762 0.0
-0.03300279 -0.01223652 0.0
-0.02846548 -0.01259183 0.0
-0.02390664 -0.01260900 0.0
-0.01944815 -0.01227051 0.0
-0.01521356 -0.01156848 0.0
-0.01132358 -0.01050808 0.0
-0.00789043 -0.00911236 0.0
-0.00501094 -0.00742897 0.0
-0.00275855 -0.00553986 0.0
-0.00117486 -0.00357494 0.0
-0.00026233 -0.00173145 0.0
0.00000000 -0.00074021 0.0
-0.00041269 0.00073869 0.0
-0.00169136 0.00302794 0.0
-0.00379785 0.00570437 0.0
-0.00668867 0.00845391 0.0
-0.01029264 0.01105256 0.0
-0.01451320 0.01334631 0.0
-0.01923386 0.01523457 0.0
-0.02432438 0.01665720 0.0
-0.02964687 0.01758453 0.0
-0.03506111 0.01800988 0.0
-0.04042915 0.01794383 0.0
-0.04561889 0.01740991 0.0
-0.05050700 0.01644133 0.0
-0.05498108 0.01507838 0.0
-0.05894139 0.01336652 0.0
-0.06230197 0.01135486 0.0
-0.06499152 0.00909505 0.0
-0.06695403 0.00664047 0.0
-0.06814909 0.00404563 0.0
-0.06855223 0.00136579 0.0
-0.06815502 -0.00134336 0.0
-0.06696515 -0.00402585 0.0
-0.06500646 -0.00662571 0.0
-0.06231883 -0.00908712 0.0
-0.05895798 -0.01135482 0.0
-0.05499513 -0.01337451 0.0
-0.05051642 -0.01509358 0.0
-0.04562205 -0.01646199 0.0
-0.04042505 -0.01743352 0.0
-0.03504955 -0.01796733 0.0
-0.02962852 -0.01803003 0.0
-0.02430079 -0.01759824 0.0
-0.01920726 -0.01666201 0.0
-0.01448629 -0.01522905 0.0
-0.01026822 -0.01333043 0.0
-0.00666924 -0.01102796 0.0
-0.00378509 -0.00842401 0.0
-0.00168572 -0.00567431 0.0
-0.00041295 -0.00300422 0.0
0.00000000 -0.00131026 0.0
-0.00055502 0.00130888 0.0
-0.00218665 0.00465957 0.0
-0.00480580 0.00832352 0.0
-0.00832696 0.01197507 0.0
-0.01264630 0.01537190 0.0
-0.01764127 0.01834128 0.0
-0.02317363 0.02076692 0.0
-0.02909411 0.02257768 0.0
-0.03524755 0.02373798 0.0
-0.04147777 0.02424010 0.0
-0.04763190 0.02409796 0.0
-0.05356405 0.02334206 0.0
-0.05913824 0.02201552 0.0
-0.06423074 0.02017088 0.0
-0.06873177 0.01786755 0.0
-0.07254681 0.01516990 0.0
-0.07559752 0.01214576 0.0
-0.07782233 0.00886527 0.0
-0.07917685 0.00540015 0.0
-0.07963419 0.00182313 0.0
-0.07918506 -0.00179249 0.0
-0.07783788 -0.00537303 0.0
-0.07561878 -0.00884481 0.0
-0.07257152 -0.01213439 0.0
-0.06875726 -0.01516908 0.0
-0.06425424 -0.01787753 0.0
-0.05915712 -0.02019069 0.0
-0.05357613 -0.02204298 0.0
-0.04763572 -0.02337394 0.0
-0.04147274 -0.02413031 0.0
-0.03523410 -0.02426867 0.0
-0.02907366 -0.02375868 0.0
-0.02314849 -0.02258718 0.0
-0.01761439 -0.02076315 0.0
-0.01262087 -0.01832394 0.0
-0.00830597 -0.01534286 0.0
-0.00479149 -0.01193849 0.0
-0.00217992 -0.00828588 0.0
-0.00055486 -0.00462927 0.0
0.00000000 -0.00201082 0.0
-0.00068837 0.00200966 0.0
-0.00266094 0.00663213 0.0
-0.00578328 0.01144586 0.0
-0.00992835 0.01612014 0.0
-0.01495771 0.02040127 0.0
-0.02072010 0.02410367 0.0
-0.02705324 0.02710006 0.0
-0.03378732 0.02931176 0.0
-0.04074931 0.03069997 0.0
-0.04776729 0.03125808 0.0
-0.05467443 0.03100509 0.0
-0.06131245 0.02998009 0.0
-0.06753451 0.02823757 0.0
-0.07320737 0.02584374 0.0
-0.07821317 0.02287335 0.0
-0.08245064 0.01940737 0.0
-0.08583593 0.01553105 0.0
-0.08830326 0.01133260 0.0
-0.08980523 0.00690213 0.0
-0.09031311 0.00233100 0.0
-0.08981694 -0.00228866 0.0
-0.08832563 -0.00686434 0.0
-0.08586698 -0.01130346 0.0
-0.08248760 -0.01551377 0.0
-0.07825277 -0.01940391 0.0
-0.07324610 -0.02288421 0.0
-0.06756898 -0.02586781 0.0
-0.06133972 -0.02827223 0.0
-0.05469232 -0.03002135 0.0
-0.04777461 -0.03104801 0.0
-0.04074604 -0.03129724 0.0
-0.03377463 -0.03073009 0.0
-0.02703341 -0.02932840 0.0
-0.02069626 -0.02710030 0.0
-0.01493347 -0.02408673 0.0
-0.00990729 -0.02036904 0.0
-0.00576828 -0.01607750 0.0
-0.00265352 -0.01140065 0.0
-0.00068791 -0.00659488 0.0
0.00000000 -0.00283507 0.0
-0.00081445 0.00283419 0.0
-0.00311712 0.00893481 0.0
-0.00673314 0.01506188 0.0
-0.01149554 0.02088254 0.0
-0.01723053 0.02613625 0.0
-0.02375636 0.03062951 0.0
-0.03088475 0.03422845 0.0
-0.03842378 0.03685079 0.0
-0.04618159 0.03845778 0.0
-0.05397023 0.03904671 0.0
-0.06160923 0.03864409 0.0
-0.06892879 0.03729965 0.0
-0.07577237 0.03508115 0.0
-0.08199871 0.03207008 0.0
-0.08748337 0.02835801 0.0
-0.09211980 0.02404380 0.0
-0.09582005 0.01923131 0.0
-0.09851525 0.01402779 0.0
-0.10015584 0.00854272 0.0
-0.10071177 0.00288694 0.0
-0.10017258 -0.00282785 0.0
-0.09854745 -0.00848946 0.0
-0.09586527 -0.01398564 0.0
-0.09217460 -0.01920444 0.0
-0.08754364 -0.02403487 0.0
-0.08205997 -0.02836787 0.0
-0.07583020 -0.03209758 0.0
-0.06897920 -0.03512323 0.0
-0.06164903 -0.03735152 0.0
-0.05399735 -0.03869969 0.0
-0.04619532 -0.03909927 0.0
-0.03842483 -0.03850058 0.0
-0.03087523 -0.03687800 0.0
-0.02373954 -0.03423599 0.0
-0.01721044 -0.03061583 0.0
-0.01147642 -0.02610307 0.0
-0.00671865 -0.02083526 0.0
-0.00310957 -0.01500974 0.0
-0.00081383 -0.00889062 0.0
0.00000000 -0.00377861 0.0
-0.00093555 0.00377807 0.0
-0.00356099 0.01156025 0.0
-0.00766429 0.01916519 0.0
-0.01304008 0.02625833 0.0
-0.01947897 0.03257514 0.0
-0.02676750 0.03791804 0.0
-0.03468978 0.04215073 0.0
-0.04303030 0.04519131 0.0
-0.05157734 0.04700482 0.0
-0.06012639 0.04759576 0.0
-0.06848339 0.04700110 0.0
-0.07646754 0.04528379 0.0
-0.08391351 0.04252712 0.0
-0.09067317 0.03882974 0.0
-0.09661682 0.03430167 0.0
-0.10163396 0.02906094 0.0
-0.10563376 0.02323110 0.0
-0.10854529 0.01693932 0.0
-0.11031762 0.01031506 0.0
-0.11091988 0.00348920 0.0
-0.11034123 -0.00340650 0.0
-0.10859092 -0.01023978 0.0
-0.10569837 -0.01687818 0.0
-0.10171328 -0.02318953 0.0
-0.09670565 -0.02904251 0.0
-0.09076578 -0.03430774 0.0
-0.08400412 -0.03885925 0.0
-0.07655077 -0.04257659 0.0
-0.06855470 -0.04534759 0.0
-0.06018249 -0.04707189 0.0
-0.05161653 -0.04766523 0.0
-0.04305259 -0.04706452 0.0
-0.03469693 -0.04523367 0.0
-0.02676281 -0.04217011 0.0
-0.01946687 -0.03791177 0.0
-0.01302550 -0.03254444 0.0
-0.00765187 -0.02620889 0.0
-0.00355404 -0.01910756 0.0
-0.00093498 -0.01150968 0.0
0.00000000 -0.00483947 0.0
-0.00105400 0.00483931 0.0
-0.00399924 0.01450548 0.0
-0.00858803 0.02375398 0.0
-0.01457746 0.03224775 0.0
-0.02172224 0.03971993 0.0
-0.02977612 0.04597191 0.0
-0.03849420 0.05086881 0.0
-0.04763610 0.05433321 0.0
-0.05696920 0.05633792 0.0
-0.06627191 0.05689847 0.0
-0.07533654 0.05606573 0.0
-0.08397171 0.05391896 0.0
-0.09200413 0.05055953 0.0
-0.09927989 0.04610550 0.0
-0.10566525 0.04068703 0.0
-0.11104703 0.03444272 0.0
-0.11533271 0.02751678 0.0
-0.11845033 0.02005695 0.0
-0.12034838 0.01221311 0.0
-0.12099561 0.00413643 0.0
-0.12038095 -0.00402116 0.0
-0.11851352 -0.01210721 0.0
-0.11542274 -0.01996896 0.0
-0.11115858 -0.02745369 0.0
-0.10579178 -0.03440931 0.0
-0.09941411 -0.04068540 0.0
-0.09213854 -0.04613482 0.0
-0.08409914 -0.05061598 0.0
-0.07545072 -0.05399601 0.0
-0.06636795 -0.05615466 0.0
-0.05704404 -0.05698914 0.0
-0.04768875 -0.05641981 0.0
-0.03852582 -0.05439660 0.0
-0.02978987 -0.05090605 0.0
-0.02172291 -0.04597874 0.0
-0.01457074 -0.03969660 0.0
-0.00857967 -0.03219996 0.0
-0.00399385 -0.02369339 0.0
-0.00105375 -0.01444978 0.0
0.00000000 -0.00601793 0.0
-0.00117198 0.00601819 0.0
-0.00443855 0.01777205 0.0
-0.00951617 0.02883160 0.0
-0.01612432 0.03885590 0.0
-0.02398109 0.04757669 0.0
-0.03280619 0.05479701 0.0
-0.04232444 0.06038706 0.0
-0.05226930 0.06427807 0.0
-0.06238641 0.06645502 0.0
-0.07243665 0.06694872 0.0
-0.08219878 0.06582787 0.0
-0.09147133 0.06319151 0.0
-0.10007395 0.05916215 0.0
-0.10784810 0.05387965 0.0
-0.11465734 0.04749627 0.0
-0.12038715 0.04017253 0.0
-0.12494457 0.03207420 0.0
-0.12825770 0.02337008 0.0
-0.13027525 0.01423066 0.0
-0.13096611 0.00482729 0.0
-0.13031912 -0.00466816 0.0
-0.12834304 -0.01408329 0.0
-0.12506674 -0.02324526 0.0
-0.12053957 -0.03198087 0.0
-0.11483184 -0.04011704 0.0
-0.10803551 -0.04748174 0.0
-0.10026467 -0.05390566 0.0
-0.09165600 -0.05922465 0.0
-0.08236894 -0.06328308 0.0
-0.07258537 -0.06593823 0.0
-0.06250884 -0.06706567 0.0
-0.05236307 -0.06656558 0.0
-0.04238981 -0.06436986 0.0
-0.03284599 -0.06044987 0.0
-0.02400034 -0.05482439 0.0
-0.01612954 -0.04756740 0.0
-0.00951436 -0.03881514 0.0
-0.00443591 -0.02877185 0.0
-0.00117237 -0.01771332 0.0
0.00000000 -0.00731630 0.0
-0.00129142 0.00731704 0.0
-0.00488518 0.02136581 0.0
-0.01046012 0.03440654 0.0
-0.01769695 0.04609274 0.0
-0.02627575 0.05615549 0.0
-0.03588071 0.06440198 0.0
-0.04620488 0.07071122 0.0
-0.05695441 0.07502761 0.0
-0.06785243 0.07735305 0.0
-0.07864207 0.07773836 0.0
-0.08908877 0.07627457 0.0
-0.09898176 0.07308450 0.0
-0.10813473 0.06831512 0.0
-0.11638595 0.06213087 0.0
-0.12359778 0.05470810 0.0
-0.12965591 0.04623065 0.0
-0.13446835 0.03688664 0.0
-0.13796450 0.02686623 0.0
-0.14009419 0.01636035 0.0
-0.14082701 0.00556010 0.0
-0.14015187 -0.00534330 0.0
-0.13807695 -0.01615820 0.0
-0.13462993 -0.02669228 0.0
-0.12985855 -0.03675225 0.0
-0.12383146 -0.04614412 0.0
-0.11663926 -0.05467394 0.0
-0.10839558 -0.06214934 0.0
-0.09923815 -0.06838208 0.0
-0.08932959 -0.07319164 0.0
-0.07885785 -0.07640996 0.0
-0.06803608 -0.07788745 0.0
-0.05710170 -0.07749995 0.0
-0.04631480 -0.07515676 0.0
-0.03595549 -0.07080919 0.0
-0.02632048 -0.06445939 0.0
-0.01771897 -0.05616891 0.0
-0.01046786 -0.04606626 0.0
-0.00488675 -0.03435296 0.0
-0.00129286 -0.02130720 0.0
0.00000000 -0.00873873 0.0
-0.00141405 0.00874001 0.0
-0.00534491 0.02529667 0.0
-0.01143047 0.04049210 0.0
-0.01931050 0.05397276 0.0
-0.02862485 0.06546984 0.0
-0.03902023 0.07479736 0.0
-0.05015622 0.08184721 0.0
-0.06171048 0.08658187 0.0
-0.07338301 0.08902558 0.0
-0.08489920 0.08925454 0.0
-0.09601179 0.08738716 0.0
-0.10650181 0.08357451 0.0
-0.11617855 0.07799185 0.0
-0.12487881 0.07083113 0.0
-0.13246565 0.06229494 0.0
-0.13882680 0.05259180 0.0
-0.14387297 0.04193281 0.0
-0.14753621 0.03052948 0.0
-0.14976858 0.01859272 0.0
-0.15054099 0.00633251 0.0
-0.14984266 -0.00604162 0.0
-0.14768092 -0.01831995 0.0
-0.14408153 -0.03029167 0.0
-0.13908951 -0.04174427 0.0
-0.13277034 -0.05246329 0.0
-0.12521153 -0.06223275 0.0
-0.11652435 -0.07083653 0.0
-0.10684560 -0.07806083 0.0
-0.09633929 -0.08369794 0.0
-0.08519789 -0.08755136 0.0
-0.07364300 -0.08944234 0.0
-0.06192520 -0.08921775 0.0
-0.05032293 -0.08675903 0.0
-0.03914018 -0.08199193 0.0
-0.02870303 -0.07489654 0.0
-0.01935498 -0.06551696 0.0
-0.01145127 -0.05396996 0.0
-0.00535241 -0.04045182 0.0
-0.00141705 -0.02524256 0.0
0.00000000 -0.01029104 0.0
-0.00154145 0.01029291 0.0
-0.00582299 0.02957822 0.0
-0.01243695 0.04710606 0.0
-0.02097871 0.06251452 0.0
-0.03104488 0.07553602 0.0
-0.04224204 0.08599452 0.0
-0.05419432 0.09379949 0.0
-0.06654968 0.09893724 0.0
-0.07898454 0.10146043 0.0
-0.09120687 0.10147687 0.0
-0.10295778 0.09913807 0.0
-0.11401173 0.09462846 0.0
-0.12417562 0.08815574 0.0
-0.13328708 0.07994260 0.0
-0.14121222 0.07022008 0.0
-0.14784306 0.05922264 0.0
-0.15309501 0.04718475 0.0
-0.15690450 0.03433898 0.0
-0.15922703 0.02091525 0.0
-0.16003566 0.00714114 0.0
-0.15932012 -0.00675716 0.0
-0.15708660 -0.02055346 0.0
-0.15335815 -0.03402012 0.0
-0.14817575 -0.04692667 0.0
-0.14159996 -0.05903907 0.0
-0.13371310 -0.07011961 0.0
-0.12462173 -0.07992790 0.0
-0.11445934 -0.08822323 0.0
-0.10338896 -0.09476833 0.0
-0.09160546 -0.09933485 0.0
-0.07933727 -0.10171053 0.0
-0.06684706 -0.10170796 0.0
-0.05443135 -0.09917474 0.0
-0.04241856 -0.09400473 0.0
-0.03116548 -0.08614962 0.0
-0.02105211 -0.07563033 0.0
-0.01247486 -0.06254721 0.0
-0.00583843 -0.04708825 0.0
-0.00154658 -0.02953441 0.0
0.00000000 -0.01198061 0.0
-0.00167505 0.01198314 0.0
-0.00632436 0.03422754 0.0
-0.01348854 0.05427023 0.0
-0.02271400 0.07173997 0.0
-0.03355000 0.08637202 0.0
-0.04555971 0.09800423 0.0
-0.05832949 0.10656927 0.0
-0.07147625 0.11208399 0.0
-0.08465262 0.11463680 0.0
-0.09754994 0.11437420 0.0
-0.10989931 0.11148743 0.0
-0.12147086 0.10620002 0.0
-0.13207184 0.09875672 0.0
-0.14154361 0.08941437 0.0
-0.14975825 0.07843472 0.0
-0.15661484 0.06607923 0.0
-0.16203593 0.05260585 0.0
-0.16596435 0.03826739 0.0
-0.16836053 0.02331143 0.0
-0.16920057 0.00798118 0.0
-0.16847506 -0.00748267 0.0
-0.16618870 -0.02283982 0.0
-0.16236089 -0.03784793 0.0
-0.15702702 -0.05226054 0.0
-0.15024070 -0.06582539 0.0
-0.14207654 -0.07828377 0.0
-0.13263354 -0.08937090 0.0
-0.12203885 -0.09881792 0.0
-0.11045152 -0.10635566 0.0
-0.09806605 -0.11172032 0.0
-0.08511534 -0.11466124 0.0
-0.07187253 -0.11495077 0.0
-0.05865145 -0.11239582 0.0
-0.04580527 -0.10685091 0.0
-0.03372294 -0.09823195 0.0
-0.02282352 -0.08652975 0.0
-0.01354813 -0.07182260 0.0
-0.00635002 -0.05428636 0.0
-0.00168297 -0.03420146 0.0
0.00000000 -0.01381636 0.0
-0.00181626 0.01381962 0.0
-0.00685379 0.03926507 0.0
-0.01459378 0.06201022 0.0
-0.02452767 0.08167387 0.0
-0.03615221 0.09799656 0.0
-0.04898302 0.11083503 0.0
-0.06256592 0.12015217 0.0
-0.07648548 0.12600356 0.0
-0.09037062 0.12852195 0.0
-0.10389740 0.12790097 0.0
-0.11678920 0.12437924 0.0
-0.12881496 0.11822578 0.0
-0.13978577 0.10972752 0.0
-0.14955044 0.09917904 0.0
-0.15799061 0.08687489 0.0
-0.16501578 0.07310440 0.0
-0.17055857 0.05814864 0.0
-0.17457056 0.04227938 0.0
-0.17701888 0.02575975 0.0
-0.17788375 0.00884605 0.0
-0.17715694 -0.00820948 0.0
-0.17484136 -0.02515540 0.0
-0.17095166 -0.04173764 0.0
-0.16551591 -0.05769629 0.0
-0.15857831 -0.07276299 0.0
-0.15020280 -0.08665928 0.0
-0.14047742 -0.09909628 0.0
-0.12951920 -0.10977613 0.0
-0.11747943 -0.11839544 0.0
-0.10454858 -0.12465116 0.0
-0.09096085 -0.12824898 0.0
-0.07699743 -0.12891419 0.0
-0.06298815 -0.12640510 0.0
-0.04931087 -0.12052819 0.0
-0.03638819 -0.11115462 0.0
-0.02468119 -0.09823676 0.0
-0.01468008 -0.08182371 0.0
-0.00689222 -0.06207423 0.0
-0.00182773 -0.03926594 0.0
0.00000000 -0.01580883 0.0
-0.00196655 0.01581292 0.0
-0.00741616 0.04471467 0.0
-0.01576112 0.07035519 0.0
-0.02643038 0.09234313 0.0
-0.03886159 0.11042777 0.0
-0.05251784 0.12449128 0.0
-0.06690124 0.13453557 0.0
-0.08156274 0.14066506 0.0
-0.09610810 0.14306731 0.0
-0.11020013 0.14199301 0.0
-0.12355785 0.13773696 0.0
-0.13595305 0.13062099 0.0
-0.14720518 0.12097965 0.0
-0.15717508 0.10914894 0.0
-0.16575841 0.09545822 0.0
-0.17287905 0.08022504 0.0
-0.17848311 0.06375270 0.0
-0.18253368 0.04632995 0.0
-0.18500663 0.02823270 0.0
-0.18588751 0.00972693 0.0
-0.18516974 -0.00892725 0.0
-0.18285403 -0.02747111 0.0
-0.17894909 -0.04564258 0.0
-0.17347367 -0.06317171 0.0
-0.16645982 -0.07977684 0.0
-0.15795730 -0.09516179 0.0
-0.14803910 -0.10901449 0.0
-0.13680765 -0.12100757 0.0
-0.12440168 -0.13080141 0.0
-0.11100298 -0.13804986 0.0
-0.09684280 -0.14240915 0.0
-0.08220701 -0.14354999 0.0
-0.06743928 -0.14117282 0.0
-0.05294169 -0.13502578 0.0
-0.03917186 -0.12492445 0.0
-0.02663628 -0.11077234 0.0
-0.01587959 -0.09258040 0.0
-0.00747013 -0.07048369 0.0
-0.00198239 -0.04475369 0.0
0.00000000 -0.01797036 0.0
-0.00212754 0.01797538 0.0
-0.00801678 0.05060392 0.0
-0.01699952 0.07933793 0.0
-0.02843267 0.10377628 0.0
-0.04168672 0.12368181 0.0
-0.05616621 0.13897078 0.0