# vtk DataFile Version 4.0
2D velocity field
ASCII
DATASET STRUCTURED_GRID
DIMENSIONS 40 40 1
POINTS 1600 float
0.00000000 0.00000000 1.0
1.00000000 0.00000000 1.0
2.00000000 0.00000000 1.0
3.00000000 0.00000000 1.0
4.00000000 0.00000000 1.0
5.00000000 0.00000000 1.0
6.00000000 0.00000000 1.0
7.00000000 0.00000000 1.0
8.00000000 0.00000000 1.0
9.00000000 0.00000000 1.0
10.00000000 0.00000000 1.0
11.00000000 0.00000000 1.0
12.00000000 0.00000000 1.0
13.00000000 0.00000000 1.0
14.00000000 0.00000000 1.0
15.00000000 0.00000000 1.0
16.00000000 0.00000000 1.0
17.00000000 0.00000000 1.0
18.00000000 0.00000000 1.0
19.00000000 0.00000000 1.0
20.00000000 0.00000000 1.0
21.00000000 0.00000000 1.0
22.00000000 0.00000000 1.0
23.00000000 0.00000000 1.0
24.00000000 0.00000000 1.0
25.00000000 0.00000000 1.0
26.00000000 0.00000000 1.0
27.00000000 0.00000000 1.0
28.00000000 0.00000000 1.0
29.00000000 0.00000000 1.0
30.00000000 0.00000000 1.0
31.00000000 0.00000000 1.0
32.00000000 0.00000000 1.0
33.00000000 0.00000000 1.0
34.00000000 0.00000000 1.0
35.00000000 0.00000000 1.0
36.00000000 0.00000000 1.0
37.00000000 0.00000000 1.0
38.00000000 0.00000000 1.0
39.00000000 0.00000000 1.0
0.00000000 1.00000000 1.0
1.00000000 1.00000000 1.0
2.00000000 1.00000000 1.0
3.00000000 1.00000000 1.0
4.00000000 1.00000000 1.0
5.00000000 1.00000000 1.0
6.00000000 1.00000000 1.0
7.00000000 1.00000000 1.0
8.00000000 1.00000000 1.0
9.00000000 1.00000000 1.0
10.00000000 1.00000000 1.0
11.00000000 1.00000000 1.0
12.00000000 1.00000000 1.0
13.00000000 1.00000000 1.0
14.00000000 1.00000000 1.0
15.00000000 1.00000000 1.0
16.00000000 1.00000000 1.0
17.00000000 1.00000000 1.0
18.00000000 1.00000000 1.0
19.00000000 1.00000000 1.0
20.00000000 1.00000000 1.0
21.00000000 1.00000000 1.0
22.00000000 1.00000000 1.0
23.00000000 1.00000000 1.0
24.00000000 1.00000000 1.0
25.00000000 1.00000000 1.0
26.00000000 1.00000000 1.0
27.00000000 1.00000000 1.0
28.00000000 1.00000000 1.0
29.00000000 1.00000000 1.0
30.00000000 1.00000000 1.0
31.00000000 1.00000000 1.0
32.00000000 1.00000000 1.0
33.00000000 1.00000000 1.0
34.00000000 1.00000000 1.0
35.00000000 1.00000000 1.0
36.00000000 1.00000000 1.0
37.00000000 1.00000000 1.0
38.00000000 1.00000000 1.0
39.00000000 1.00000000 1.0
0.00000000 2.00000000 1.0
1.00000000 2.00000000 1.0
2.00000000 2.00000000 1.0
3.00000000 2.00000000 1.0
4.00000000 2.00000000 1.0
5.00000000 2.00000000 1.0
6.00000000 2.00000000 1.0
7.00000000 2.00000000 1.0
8.00000000 2.00000000 1.0
9.00000000 2.00000000 1.0
10.00000000 2.00000000 1.0
11.00000000 2.00000000 1.0
12.00000000 2.00000000 1.0
13.00000000 2.00000000 1.0
14.00000000 2.00000000 1.0
15.00000000 2.00000000 1.0
16.00000000 2.00000000 1.0
17.00000000 2.00000000 1.0
18.00000000 2.00000000 1.0
19.00000000 2.00000000 1.0
20.00000000 2.00000000 1.0
21.00000000 2.00000000 1.0
22.00000000 2.00000000 1.0
23.00000000 2.00000000 1.0
24.00000000 2.00000000 1.0
25.00000000 2.00000000 1.0
26.00000000 2.00000000 1.0
27.00000000 2.00000000 1.0
28.00000000 2.00000000 1.0
29.00000000 2.00000000 1.0
30.00000000 2.00000000 1.0
31.00000000 2.00000000 1.0
32.00000000 2.00000000 1.0
33.00000000 2.00000000 1.0
34.00000000 2.00000000 1.0
35.00000000 2.00000000 1.0
36.00000000 2.00000000 1.0
37.00000000 2.00000000 1.0
38.00000000 2.00000000 1.0
39.00000000 2.00000000 1.0
0.00000000 3.00000000 1.0
1.00000000 3.00000000 1.0
2.00000000 3.00000000 1.0
3.00000000 3.00000000 1.0
4.00000000 3.00000000 1.0
5.00000000 3.00000000 1.0
6.00000000 3.00000000 1.0
7.00000000 3.00000000 1.0
8.00000000 3.00000000 1.0
9.00000000 3.00000000 1.0
10.00000000 3.00000000 1.0
11.00000000 3.00000000 1.0
12.00000000 3.00000000 1.0
13.00000000 3.00000000 1.0
14.00000000 3.00000000 1.0
15.00000000 3.00000000 1.0
16.00000000 3.00000000 1.0
17.00000000 3.00000000 1.0
18.00000000 3.00000000 1.0
19.00000000 3.00000000 1.0
20.00000000 3.00000000 1.0
21.00000000 3.00000000 1.0
22.00000000 3.00000000 1.0
23.00000000 3.00000000 1.0
24.00000000 3.00000000 1.0
25.00000000 3.00000000 1.0
26.00000000 3.00000000 1.0
27.00000000 3.00000000 1.0
28.00000000 3.00000000 1.0
29.00000000 3.00000000 1.0
30.00000000 3.00000000 1.0
31.00000000 3.00000000 1.0
32.00000000 3.00000000 1.0
33.00000000 3.00000000 1.0
34.00000000 3.00000000 1.0
35.00000000 3.00000000 1.0
36.00000000 3.00000000 1.0
37.00000000 3.00000000 1.0
38.00000000 3.00000000 1.0
39.00000000 3.00000000 1.0
0.00000000 4.00000000 1.0
1.00000000 4.00000000 1.0
2.00000000 4.00000000 1.0
3.00000000 4.00000000 1.0
4.00000000 4.00000000 1.0
5.00000000 4.00000000 1.0
6.00000000 4.00000000 1.0
7.00000000 4.00000000 1.0
8.00000000 4.00000000 1.0
9.00000000 4.00000000 1.0
10.00000000 4.00000000 1.0
11.00000000 4.00000000 1.0
12.00000000 4.00000000 1.0
13.00000000 4.00000000 1.0
14.00000000 4.00000000 1.0
15.00000000 4.00000000 1.0
16.00000000 4.00000000 1.0
17.00000000 4.00000000 1.0
18.00000000 4.00000000 1.0
19.00000000 4.00000000 1.0
20.00000000 4.00000000 1.0
21.00000000 4.00000000 1.0
22.00000000 4.00000000 1.0
23.00000000 4.00000000 1.0
24.00000000 4.00000000 1.0
25.00000000 4.00000000 1.0
26.00000000 4.00000000 1.0
27.00000000 4.00000000 1.0
28.00000000 4.00000000 1.0
29.00000000 4.00000000 1.0
30.00000000 4.00000000 1.0
31.00000000 4.00000000 1.0
32.00000000 4.00000000 1.0
33.00000000 4.00000000 1.0
34.00000000 4.00000000 1.0
35.00000000 4.00000000 1.0
36.00000000 4.00000000 1.0
37.00000000 4.00000000 1.0
38.00000000 4.00000000 1.0
39.00000000 4.00000000 1.0
0.00000000 5.00000000 1.0
1.00000000 5.00000000 1.0
2.00000000 5.00000000 1.0
3.00000000 5.00000000 1.0
4.00000000 5.00000000 1.0
5.00000000 5.00000000 1.0
6.00000000 5.00000000 1.0
7.00000000 5.00000000 1.0
8.00000000 5.00000000 1.0
9.00000000 5.00000000 1.0
10.00000000 5.00000000 1.0
11.00000000 5.00000000 1.0
12.00000000 5.00000000 1.0
13.00000000 5.00000000 1.0
14.00000000 5.00000000 1.0
15.00000000 5.00000000 1.0
16.00000000 5.00000000 1.0
17.00000000 5.00000000 1.0
18.00000000 5.00000000 1.0
19.00000000 5.00000000 1.0
20.00000000 5.00000000 1.0
21.00000000 5.00000000 1.0
22.00000000 5.00000000 1.0
23.00000000 5.00000000 1.0
24.00000000 5.00000000 1.0
25.00000000 5.00000000 1.0
26.00000000 5.00000000 1.0
27.00000000 5.00000000 1.0
28.00000000 5.00000000 1.0
29.00000000 5.00000000 1.0
30.00000000 5.00000000 1.0
31.00000000 5.00000000 1.0
32.00000000 5.00000000 1.0
33.00000000 5.00000000 1.0
34.00000000 5.00000000 1.0
35.00000000 5.00000000 1.0
36.00000000 5.00000000 1.0
37.00000000 5.00000000 1.0
38.00000000 5.00000000 1.0
39.00000000 5.00000000 1.0
0.00000000 6.00000000 1.0
1.00000000 6.00000000 1.0
2.00000000 6.00000000 1.0
3.00000000 6.00000000 1.0
4.00000000 6.00000000 1.0
5.00000000 6.00000000 1.0
6.00000000 6.00000000 1.0
7.00000000 6.00000000 1.0
8.00000000 6.00000000 1.0
9.00000000 6.00000000 1.0
10.00000000 6.00000000 1.0
11.00000000 6.00000000 1.0
12.00000000 6.00000000 1.0
13.00000000 6.00000000 1.0
14.00000000 6.00000000 1.0
15.00000000 6.00000000 1.0
16.00000000 6.00000000 1.0
17.00000000 6.00000000 1.0
18.00000000 6.00000000 1.0
19.00000000 6.00000000 1.0
20.00000000 6.00000000 1.0
21.00000000 6.00000000 1.0
22.00000000 6.00000000 1.0
23.00000000 6.00000000 1.0
24.00000000 6.00000000 1.0
25.00000000 6.00000000 1.0
26.00000000 6.00000000 1.0
27.00000000 6.00000000 1.0
28.00000000 6.00000000 1.0
29.00000000 6.00000000 1.0
30.00000000 6.00000000 1.0
31.00000000 6.00000000 1.0
32.00000000 6.00000000 1.0
33.00000000 6.00000000 1.0
34.00000000 6.00000000 1.0
35.00000000 6.00000000 1.0
36.00000000 6.00000000 1.0
37.00000000 6.00000000 1.0
38.00000000 6.00000000 1.0
39.00000000 6.00000000 1.0
0.00000000 7.00000000 1.0
1.00000000 7.00000000 1.0
2.00000000 7.00000000 1.0
3.00000000 7.00000000 1.0
4.00000000 7.00000000 1.0
5.00000000 7.00000000 1.0
6.00000000 7.00000000 1.0
7.00000000 7.00000000 1.0
8.00000000 7.00000000 1.0
9.00000000 7.00000000 1.0
10.00000000 7.00000000 1.0
11.00000000 7.00000000 1.0
12.00000000 7.00000000 1.0
13.00000000 7.00000000 1.0
14.00000000 7.00000000 1.0
15.00000000 7.00000000 1.0
16.00000000 7.00000000 1.0
17.00000000 7.00000000 1.0
18.00000000 7.00000000 1.0
19.00000000 7.00000000 1.0
20.00000000 7.00000000 1.0
21.00000000 7.00000000 1.0
22.00000000 7.00000000 1.0
23.00000000 7.00000000 1.0
24.00000000 7.00000000 1.0
25.00000000 7.00000000 1.0
26.00000000 7.00000000 1.0
27.00000000 7.00000000 1.0
28.00000000 7.00000000 1.0
29.00000000 7.00000000 1.0
30.00000000 7.00000000 1.0
31.00000000 7.00000000 1.0
32.00000000 7.00000000 1.0
33.00000000 7.00000000 1.0
34.00000000 7.00000000 1.0
35.00000000 7.00000000 1.0
36.00000000 7.00000000 1.0
37.00000000 7.00000000 1.0
38.00000000 7.00000000 1.0
39.00000000 7.00000000 1.0
0.00000000 8.00000000 1.0
1.00000000 8.00000000 1.0
2.00000000 8.00000000 1.0
3.00000000 8.00000000 1.0
4.00000000 8.00000000 1.0
5.00000000 8.00000000 1.0
6.00000000 8.00000000 1.0
7.00000000 8.00000000 1.0
8.00000000 8.00000000 1.0
9.00000000 8.00000000 1.0
10.00000000 8.00000000 1.0
11.00000000 8.00000000 1.0
12.00000000 8.00000000 1.0
13.00000000 8.00000000 1.0
14.00000000 8.00000000 1.0
15.00000000 8.00000000 1.0
16.00000000 8.00000000 1.0
17.00000000 8.00000000 1.0
18.00000000 8.00000000 1.0
19.00000000 8.00000000 1.0
20.00000000 8.00000000 1.0
21.00000000 8.00000000 1.0
22.00000000 8.00000000 1.0
23.00000000 8.00000000 1.0
24.00000000 8.00000000 1.0
25.00000000 8.00000000 1.0
26.00000000 8.00000000 1.0
27.00000000 8.00000000 1.0
28.00000000 8.00000000 1.0
29.00000000 8.00000000 1.0
30.00000000 8.00000000 1.0
31.00000000 8.00000000 1.0
32.00000000 8.00000000 1.0
33.00000000 8.00000000 1.0
34.00000000 8.00000000 1.0
35.00000000 8.00000000 1.0
36.00000000 8.00000000 1.0
37.00000000 8.00000000 1.0
38.00000000 8.00000000 1.0
39.00000000 8.00000000 1.0
0.00000000 9.00000000 1.0
1.00000000 9.00000000 1.0
2.00000000 9.00000000 1.0
3.00000000 9.00000000 1.0
4.00000000 9.00000000 1.0
5.00000000 9.00000000 1.0
6.00000000 9.00000000 1.0
7.00000000 9.00000000 1.0
8.00000000 9.00000000 1.0
[...]
POINT_DATA 1600
VECTORS velocity double
0.00000000 0.00003003 0.0
0.00000026 -0.00003016 0.0
0.00000050 -0.00000938 0.0
0.00000065 0.00005212 0.0
0.00000070 0.00012590 0.0
0.00000066 0.00019750 0.0
0.00000056 0.00026024 0.0
0.00000041 0.00031120 0.0
0.00000022 0.00034934 0.0
0.00000002 0.00037453 0.0
-0.00000020 0.00038715 0.0
-0.00000041 0.00038788 0.0
-0.00000062 0.00037760 0.0
-0.00000082 0.00035731 0.0
-0.00000100 0.00032810 0.0
-0.00000116 0.00029109 0.0
-0.00000129 0.00024747 0.0
-0.00000140 0.00019840 0.0
-0.00000148 0.00014509 0.0
-0.00000152 0.00008873 0.0
-0.00000154 0.00003052 0.0
-0.00000153 -0.00002833 0.0
-0.00000148 -0.00008661 0.0
-0.00000140 -0.00014313 0.0
-0.00000129 -0.00019666 0.0
-0.00000116 -0.00024597 0.0
-0.00000100 -0.00028986 0.0
-0.00000082 -0.00032710 0.0
-0.00000062 -0.00035649 0.0
-0.00000041 -0.00037689 0.0
-0.00000020 -0.00038718 0.0
0.00000002 -0.00038636 0.0
0.00000022 -0.00037356 0.0
0.00000041 -0.00034811 0.0
0.00000056 -0.00030966 0.0
0.00000066 -0.00025837 0.0
0.00000070 -0.00019535 0.0
0.00000065 -0.00012354 0.0
0.00000050 -0.00004969 0.0
0.00000025 0.00001166 0.0
0.00000000 0.00009166 0.0
0.00010420 -0.00009224 0.0
0.00007865 0.00003081 0.0
-0.00015173 0.00029815 0.0
-0.00062040 0.00061152 0.0
-0.00132217 0.00091762 0.0
-0.00223108 0.00118883 0.0
-0.00331055 0.00141146 0.0
-0.00451910 0.00157949 0.0
-0.00581373 0.00169121 0.0
-0.00715198 0.00174748 0.0
-0.00849323 0.00175082 0.0
-0.00979952 0.00170475 0.0
-0.01103615 0.00161356 0.0
-0.01217203 0.00148196 0.0
-0.01317995 0.00131500 0.0
-0.01403673 0.00111792 0.0
-0.01472330 0.00089606 0.0
-0.01522477 0.00065485 0.0
-0.01553043 0.00039973 0.0
-0.01563382 0.00013620 0.0
-0.01553268 -0.00013026 0.0
-0.01522899 -0.00039414 0.0
-0.01472901 -0.00064991 0.0
-0.01404324 -0.00089203 0.0
-0.01318647 -0.00111493 0.0
-0.01217774 -0.00131309 0.0
-0.01104032 -0.00148103 0.0
-0.00980158 -0.00161338 0.0
-0.00849284 -0.00170502 0.0
-0.00714910 -0.00175113 0.0
-0.00580864 -0.00174744 0.0
-0.00451238 -0.00169040 0.0
-0.00330302 -0.00157759 0.0
-0.00222371 -0.00140827 0.0
-0.00131595 -0.00118431 0.0
-0.00061618 -0.00091197 0.0
-0.00015006 -0.00060512 0.0
0.00007775 -0.00029164 0.0
0.00010139 -0.00002514 0.0
0.00000000 0.00009552 0.0
0.00003121 -0.00009662 0.0
-0.00020632 0.00026834 0.0
-0.00080349 0.00089531 0.0
-0.00180044 0.00160848 0.0
-0.00318771 0.00230489 0.0
-0.00492460 0.00292571 0.0
-0.00695180 0.00343867 0.0
-0.00919997 0.00382766 0.0
-0.01159543 0.00408667 0.0
-0.01406403 0.00421609 0.0
-0.01653386 0.00422064 0.0
-0.01893699 0.00410788 0.0
-0.02121081 0.00388738 0.0
-0.02329890 0.00357005 0.0
-0.02515161 0.00316771 0.0
-0.02672648 0.00269279 0.0
-0.02798849 0.00215807 0.0
-0.02891023 0.00157659 0.0
-0.02947200 0.00096151 0.0
-0.02966186 0.00032607 0.0
-0.02947568 -0.00031644 0.0
-0.02891716 -0.00095266 0.0
-0.02799785 -0.00156922 0.0
-0.02673715 -0.00215273 0.0
-0.02516230 -0.00268979 0.0
-0.02330828 -0.00316712 0.0
-0.02121766 -0.00357164 0.0
-0.01894036 -0.00389068 0.0
-0.01653321 -0.00411217 0.0
-0.01405929 -0.00422505 0.0
-0.01158703 -0.00421970 0.0
-0.00918884 -0.00408859 0.0
-0.00693925 -0.00382718 0.0
-0.00491218 -0.00343534 0.0
-0.00317700 -0.00291950 0.0
-0.00179274 -0.00229622 0.0
-0.00079958 -0.00159829 0.0
-0.00020615 -0.00088507 0.0
0.00002878 -0.00026007 0.0
0.00000000 -0.00003223 0.0
-0.00010285 0.00003085 0.0
-0.00064489 0.00081039 0.0
-0.00168771 0.00193813 0.0
-0.00325638 0.00317715 0.0
-0.00532948 0.00437799 0.0
-0.00785238 0.00544861 0.0
-0.01074840 0.00633469 0.0
-0.01392761 0.00700687 0.0
-0.01729347 0.00745253 0.0
-0.02074783 0.00767046 0.0
-0.02419456 0.00766737 0.0
-0.02754220 0.00745552 0.0
-0.03070590 0.00705109 0.0
-0.03360883 0.00647298 0.0
-0.03618310 0.00574199 0.0
-0.03837050 0.00488018 0.0
-0.04012290 0.00391046 0.0
-0.04140255 0.00285624 0.0
-0.04218232 0.00174127 0.0
-0.04244574 0.00058948 0.0
-0.04218713 -0.00057505 0.0
-0.04141162 -0.00172817 0.0
-0.04013518 -0.00284567 0.0
-0.03838456 -0.00390334 0.0
-0.03619728 -0.00487707 0.0
-0.03362142 -0.00574299 0.0
-0.03071533 -0.00647773 0.0
-0.02754724 -0.00705877 0.0
-0.02419446 -0.00746495 0.0
-0.02074245 -0.00767706 0.0
-0.01728331 -0.00767885 0.0
-0.01391378 -0.00745811 0.0
-0.01073252 -0.00700843 0.0
-0.00783637 -0.00633149 0.0
-0.00531529 -0.00544058 0.0
-0.00324567 -0.00436584 0.0
-0.00168149 -0.00316246 0.0
-0.00064321 -0.00192335 0.0
-0.00010458 -0.00079870 0.0
0.00000000 -0.00030478 0.0
-0.00025059 0.00030330 0.0
-0.00113229 0.00169208 0.0
-0.00265796 0.00346381 0.0
-0.00482263 0.00534181 0.0
-0.00758427 0.00713963 0.0
-0.01087104 0.00873538 0.0
-0.01458937 0.01005302 0.0
-0.01863166 0.01104916 0.0
-0.02288276 0.01170363 0.0
-0.02722533 0.01201302 0.0
-0.03154395 0.01198600 0.0
-0.03572843 0.01164000 0.0
-0.03967612 0.01099878 0.0
-0.04329378 0.01009064 0.0
-0.04649886 0.00894706 0.0
-0.04922037 0.00760170 0.0
-0.05139957 0.00608966 0.0
-0.05299035 0.00444702 0.0
-0.05395949 0.00271041 0.0
-0.05428687 0.00091687 0.0
-0.05396554 -0.00089637 0.0
-0.05300180 -0.00269191 0.0
-0.05141517 -0.00443229 0.0
-0.04923841 -0.00608010 0.0
-0.04651735 -0.00759813 0.0
-0.04331066 -0.00894968 0.0
-0.03968947 -0.01009892 0.0
-0.03573670 -0.01101154 0.0
-0.03154617 -0.01165548 0.0
-0.02722118 -0.01200205 0.0
-0.02287273 -0.01202730 0.0
-0.01861692 -0.01171392 0.0
-0.01457173 -0.01105363 0.0
-0.01085268 -0.01005054 0.0
-0.00756748 -0.00872578 0.0
-0.00480942 -0.00712391 0.0
-0.00264967 -0.00532221 0.0
-0.00112921 -0.00344381 0.0
-0.00025173 -0.00167618 0.0
0.00000000 -0.00071851 0.0
-0.00039485 0.00071707 0.0
-0.00162169 0.00291892 0.0
-0.00364137 0.00548348 0.0
-0.00641116 0.00811160 0.0
-0.00986186 0.01059034 0.0
-0.01390020 0.01277372 0.0
-0.01841404 0.01456685 0.0
-0.02327835 0.01591347 0.0
-0.02836111 0.01678639 0.0
-0.03352839 0.01718030 0.0
-0.03864865 0.01710625 0.0
-0.04359621 0.01658756 0.0
-0.04825396 0.01565653 0.0
-0.05251539 0.01435207 0.0
-0.05628610 0.01271777 0.0
-0.05948489 0.01080048 0.0
-0.06204449 0.00864926 0.0
-0.06391209 0.00631462 0.0
-0.06504964 0.00384796 0.0
-0.06543408 0.00130130 0.0
-0.06505743 -0.00127302 0.0
-0.06392689 -0.00382245 0.0
-0.06206485 -0.00629434 0.0
-0.05950878 -0.00863616 0.0
-0.05631115 -0.01079575 0.0
-0.05253912 -0.01272171 0.0
-0.04827402 -0.01436402 0.0
-0.04361064 -0.01567492 0.0
-0.03865611 -0.01661001 0.0
-0.03352833 -0.01712983 0.0
-0.02835384 -0.01720180 0.0
-0.02326502 -0.01680274 0.0
-0.01839655 -0.01592209 0.0
-0.01388100 -0.01456610 0.0
-0.00984354 -0.01276323 0.0
-0.00639614 -0.01057131 0.0
-0.00363141 -0.00808694 0.0
-0.00161747 -0.00545776 0.0
-0.00039554 -0.00289810 0.0
0.00000000 -0.00126531 0.0
-0.00053090 0.00126401 0.0
-0.00209582 0.00448384 0.0
-0.00460721 0.00799487 0.0
-0.00798223 0.01148662 0.0
-0.01212044 0.01472854 0.0
-0.01690351 0.01755679 0.0
-0.02219830 0.01986165 0.0
-0.02786138 0.02157656 0.0
-0.03374399 0.02266900 0.0
-0.03969669 0.02313300 0.0
-0.04557355 0.02298311 0.0
-0.05123556 0.02224957 0.0
-0.05655345 0.02097442 0.0
-0.06140977 0.01920840 0.0
-0.06570054 0.01700855 0.0
-0.06933637 0.01443631 0.0
-0.07224325 0.01155615 0.0
-0.07436309 0.00843446 0.0
-0.07565405 0.00513892 0.0
-0.07609075 0.00173800 0.0
-0.07566441 -0.00169937 0.0
-0.07438289 -0.00510396 0.0
-0.07227075 -0.00840648 0.0
-0.06936915 -0.01153776 0.0
-0.06573575 -0.01442916 0.0
-0.06144435 -0.01701310 0.0
-0.05658448 -0.01922390 0.0
-0.05126052 -0.02099888 0.0
-0.04559057 -0.02227995 0.0
-0.03970479 -0.02301561 0.0
-0.03374317 -0.02316342 0.0
-0.02785266 -0.02269325 0.0
-0.02218361 -0.02159115 0.0
-0.01688548 -0.01986423 0.0
-0.01210205 -0.01754666 0.0
-0.00796638 -0.01470698 0.0
-0.00459618 -0.01145714 0.0
-0.00209075 -0.00796319 0.0
-0.00053124 -0.00445761 0.0
0.00000000 -0.00193736 0.0
-0.00065883 0.00193627 0.0
-0.00255167 0.00637668 0.0
-0.00554781 0.01099101 0.0
-0.00952469 0.01546350 0.0
-0.01434859 0.01955244 0.0
-0.01987350 0.02308170 0.0
-0.02594294 0.02593109 0.0
-0.03239352 0.02802713 0.0
-0.03905903 0.02933451 0.0
-0.04577469 0.02984866 0.0
-0.05238093 0.02958935 0.0
-0.05872670 0.02859534 0.0
-0.06467212 0.02691984 0.0
-0.07009057 0.02462684 0.0
-0.07487021 0.02178819 0.0
-0.07891512 0.01848123 0.0
-0.08214603 0.01478705 0.0
-0.08450076 0.01078919 0.0
-0.08593459 0.00657275 0.0
-0.08642037 0.00222378 0.0
-0.08594867 -0.00217107 0.0
-0.08452782 -0.00652481 0.0
-0.08218396 -0.01075034 0.0
-0.07896100 -0.01476073 0.0
-0.07492050 -0.01846966 0.0
-0.07014149 -0.02179212 0.0
-0.06471995 -0.02464544 0.0
-0.05876811 -0.02695072 0.0
-0.05241332 -0.02863475 0.0
-0.04579642 -0.02963250 0.0
-0.03906963 -0.02989021 0.0
-0.03239372 -0.02936916 0.0
-0.02593462 -0.02805025 0.0
-0.01985944 -0.02593941 0.0
-0.01433217 -0.02307393 0.0
-0.00950935 -0.01952980 0.0
-0.00553649 -0.01543000 0.0
-0.00254612 -0.01095356 0.0
-0.00065893 -0.00634480 0.0
0.00000000 -0.00272883 0.0
-0.00078049 0.00272800 0.0
-0.00299271 0.00858891 0.0
-0.00646729 0.01446559 0.0
-0.01104330 0.02003950 0.0
-0.01655289 0.02506204 0.0
-0.02282049 0.02934930 0.0
-0.02966430 0.03277491 0.0
-0.03689929 0.03526212 0.0
-0.04434079 0.03677601 0.0
-0.05180826 0.03731613 0.0
-0.05912871 0.03690981 0.0
-0.06613974 0.03560637 0.0
-0.07269194 0.03347203 0.0
-0.07865078 0.03058568 0.0
-0.08389800 0.02703540 0.0
-0.08833250 0.02291573 0.0
-0.09187098 0.01832554 0.0
-0.09444828 0.01336649 0.0
-0.09601756 0.00814202 0.0
-0.09655038 0.00275661 0.0
-0.09603682 -0.00268463 0.0
-0.09448547 -0.00807616 0.0
-0.09192352 -0.01331230 0.0
-0.08839676 -0.01828749 0.0
-0.08396962 -0.02289680 0.0
-0.07872498 -0.02703675 0.0
-0.07276394 -0.03060648 0.0
-0.06620514 -0.03350952 0.0
-0.05918388 -0.03565601 0.0
-0.05185066 -0.03696572 0.0
-0.04436924 -0.03737163 0.0
-0.03691404 -0.03682435 0.0
-0.02966704 -0.03529725 0.0
-0.02281412 -0.03279233 0.0
-0.01654118 -0.02934687 0.0
-0.01103032 -0.02504065 0.0
-0.00645677 -0.02000355 0.0
-0.00298720 -0.01442313 0.0
-0.00078049 -0.00855151 0.0
0.00000000 -0.00363634 0.0
-0.00089824 0.00363583 0.0
-0.00342507 0.01111573 0.0
-0.00737532 0.01841585 0.0
-0.01255095 0.02521513 0.0
-0.01874954 0.03126063 0.0
-0.02576456 0.03636432 0.0
-0.03338718 0.04039753 0.0
-0.04140918 0.04328412 0.0
-0.04962628 0.04499311 0.0
-0.05784153 0.04553138 0.0
-0.06586848 0.04493675 0.0
-0.07353374 0.04327164 0.0
-0.08067918 0.04061747 0.0
-0.08716341 0.03706991 0.0
-0.09286290 0.03273490 0.0
-0.09767262 0.02772545 0.0
-0.10150639 0.02215930 0.0
-0.10429699 0.01615709 0.0
-0.10599620 0.00984124 0.0
-0.10657477 0.00333518 0.0
-0.10602239 -0.00323701 0.0
-0.10434773 -0.00975082 0.0
-0.10157850 -0.01608152 0.0
-0.09776163 -0.02210436 0.0
-0.09296335 -0.02769508 0.0
-0.08726926 -0.03273084 0.0
-0.08078428 -0.03709146 0.0
-0.07363230 -0.04066150 0.0
-0.06595551 -0.04333280 0.0
-0.05791329 -0.04500794 0.0
-0.04968057 -0.04560435 0.0
-0.04144556 -0.04505936 0.0
-0.03340697 -0.04333584 0.0
-0.02577067 -0.04042863 0.0
-0.01874612 -0.03637142 0.0
-0.01254278 -0.03124399 0.0
-0.00736706 -0.02517927 0.0
-0.00342026 -0.01836993 0.0
-0.00089832 -0.01107345 0.0
0.00000000 -0.00465899 0.0
-0.00101444 0.00465885 0.0
-0.00385561 0.01395690 0.0
-0.00828369 0.02284392 0.0
-0.01406403 0.03099546 0.0
-0.02095910 0.03815569 0.0
-0.02873014 0.04413536 0.0
-0.03713977 0.04880716 0.0
-0.04595512 0.05209947 0.0
-0.05495117 0.05398916 0.0
-0.06391395 0.05449416 0.0
-0.07264335 0.05366615 0.0
-0.08095535 0.05158364 0.0
-0.08868376 0.04834588 0.0
-0.09568132 0.04406747 0.0
-0.10182037 0.03887395 0.0
-0.10699311 0.03289820 0.0
-0.11111158 0.02627777 0.0
-0.11410748 0.01915299 0.0
-0.11593194 0.01166570 0.0
-0.11655532 0.00395856 0.0
-0.11596707 -0.00382526 0.0
-0.11417571 -0.01154218 0.0
-0.11120902 -0.01904821 0.0
-0.10711422 -0.02619915 0.0
-0.10195836 -0.03285095 0.0
-0.09582859 -0.03886061 0.0
-0.08883245 -0.04408760 0.0
-0.08109789 -0.04839605 0.0
-0.07277304 -0.05165766 0.0
-0.06402546 -0.05375552 0.0
-0.05504095 -0.05458886 0.0
-0.04602173 -0.05407858 0.0
-0.03718395 -0.05217363 0.0
-0.02875467 -0.04885791 0.0
-0.02096845 -0.04415764 0.0
-0.01406376 -0.03814868 0.0
-0.00827953 -0.03096350 0.0
-0.00385240 -0.02279706 0.0
-0.00101485 -0.01391100 0.0
0.00000000 -0.00579815 0.0
-0.00113128 0.00579841 0.0
-0.00429112 0.01711674 0.0
-0.00920447 0.02775728 0.0
-0.01559970 0.03739069 0.0
-0.02320313 0.04575913 0.0
-0.03174239 0.05267462 0.0
-0.04094999 0.05801477 0.0
-0.05056706 0.06171653 0.0
-0.06034682 0.06376892 0.0
-0.07005772 0.06420506 0.0
-0.07948592 0.06309435 0.0
-0.08843719 0.06053490 0.0
-0.09673805 0.05664674 0.0
-0.10423645 0.05156587 0.0
-0.11080182 0.04543931 0.0
-0.11632482 0.03842120 0.0
-0.12071692 0.03066987 0.0
-0.12390976 0.02234582 0.0
-0.12585458 0.01361053 0.0
-0.12652184 0.00462582 0.0
-0.12590086 -0.00444624 0.0
-0.12399986 -0.01344318 0.0
-0.12084609 -0.02220199 0.0
-0.11648626 -0.03055898 0.0
-0.11098713 -0.03835008 0.0
-0.10443618 -0.04541156 0.0
-0.09694225 -0.05158153 0.0
-0.08863612 -0.05670219 0.0
-0.07967073 -0.06062305 0.0
-0.07022105 -0.06320519 0.0
-0.06048341 -0.06432650 0.0
-0.05067410 -0.06388790 0.0
-0.04102733 -0.06182039 0.0
-0.03179250 -0.05809274 0.0
-0.02323074 -0.05271940 0.0
-0.01561115 -0.04576827 0.0
-0.00920674 -0.03736790 0.0
-0.00429060 -0.02771321 0.0
-0.00113231 -0.01706929 0.0
0.00000000 -0.00705719 0.0
-0.00125068 0.00705791 0.0
-0.00473787 0.02060393 0.0
-0.01014916 0.03316857 0.0
-0.01717445 0.04441598 0.0
-0.02550228 0.05408695 0.0
-0.03482488 0.06199722 0.0
-0.04484303 0.06803292 0.0
-0.05527050 0.07214400 0.0
-0.06583785 0.07433627 0.0
-0.07629556 0.07466277 0.0
-0.08641626 0.07321505 0.0
-0.09599609 0.07011473 0.0
-0.10485536 0.06550602 0.0
-0.11283849 0.05954900 0.0
-0.11981344 0.05241426 0.0
-0.12567084 0.04427860 0.0
-0.13032292 0.03532194 0.0
-0.13370239 0.02572530 0.0
-0.13576153 0.01566966 0.0
-0.13647138 0.00533567 0.0
-0.13582136 -0.00509626 0.0
-0.13381910 -0.01544544 0.0
-0.13049074 -0.02553034 0.0
-0.12588155 -0.03516817 0.0
-0.12005678 -0.04417485 0.0
-0.11310280 -0.05236555 0.0
-0.10512825 -0.05955608 0.0
-0.09626522 -0.06556521 0.0
-0.08667017 -0.07021810 0.0
-0.07652443 -0.07335093 0.0
-0.06603419 -0.07481674 0.0
-0.05542973 -0.07449236 0.0
-0.04496377 -0.07228635 0.0
-0.03490901 -0.06814751 0.0
-0.02555465 -0.06207376 0.0
-0.01720219 -0.05412073 0.0
-0.01016067 -0.04440943 0.0
-0.00474141 -0.03313247 0.0
-0.00125273 -0.02055797 0.0
0.00000000 -0.00844131 0.0
-0.00137436 0.00844255 0.0
-0.00520158 0.02443115 0.0
-0.01112830 0.03909529 0.0
-0.01880340 0.05209108 0.0
-0.02787517 0.06315872 0.0
-0.03799822 0.07212027 0.0
-0.04883970 0.07887440 0.0
-0.06008465 0.08338894 0.0
-0.07144021 0.08569183 0.0
-0.08263878 0.08586134 0.0
-0.09343990 0.08401617 0.0
-0.10363113 0.08030597 0.0
-0.11302797 0.07490285 0.0
-0.12147298 0.06799401 0.0
-0.12883447 0.05977575 0.0
-0.13500477 0.05044891 0.0
-0.13989851 0.04021568 0.0
-0.14345087 0.02927766 0.0
-0.14561615 0.01783494 0.0
-0.14636666 0.00608618 0.0
-0.14569203 -0.00577088 0.0
-0.14359911 -0.01753836 0.0
-0.14011226 -0.02901720 0.0
-0.13527416 -0.04000627 0.0
-0.12914715 -0.05030185 0.0
-0.12181480 -0.05969790 0.0
-0.11338371 -0.06798717 0.0
-0.10398545 -0.07496348 0.0
-0.09377823 -0.08042532 0.0
-0.08294831 -0.08418085 0.0
-0.07171074 -0.08605430 0.0
-0.06030932 -0.08589379 0.0
-0.04901547 -0.08358019 0.0
-0.03812606 -0.07903692 0.0
-0.02795983 -0.07223999 0.0
-0.01885279 -0.06322777 0.0
-0.01115236 -0.05210985 0.0
-0.00521081 -0.03907403 0.0
-0.00137789 -0.02439089 0.0
0.00000000 -0.00995735 0.0
-0.00150386 0.00995916 0.0
-0.00568743 0.02861472 0.0
-0.01215142 0.04555928 0.0
-0.02050001 0.06043968 0.0
-0.03033790 0.07299661 0.0
-0.04127922 0.08306159 0.0
-0.05295531 0.09055049 0.0
-0.06502104 0.09545468 0.0
-0.07715956 0.09783035 0.0
-0.08908536 0.09778714 0.0
-0.10054585 0.09547665 0.0
-0.11132151 0.09108163 0.0
-0.12122494 0.08480629 0.0
-0.13009908 0.07686815 0.0
-0.13781481 0.06749148 0.0
-0.14426839 0.05690249 0.0
-0.14937878 0.04532608 0.0
-0.15308529 0.03298416 0.0
-0.15534546 0.02009511 0.0
-0.15613360 0.00687432 0.0
-0.15543987 -0.00646462 0.0
-0.15326999 -0.01970824 0.0
-0.14964572 -0.03264146 0.0
-0.14460595 -0.04504604 0.0
-0.13820837 -0.05669943 0.0
-0.13053170 -0.06737457 0.0
-0.12167826 -0.07684061 0.0
-0.11177673 -0.08486500 0.0
-0.10098486 -0.09121719 0.0
-0.08949182 -0.09567389 0.0
-0.07751997 -0.09802615 0.0
-0.06532571 -0.09808805 0.0
-0.05319903 -0.09570687 0.0
-0.04146163 -0.09077432 0.0
-0.03046340 -0.08323822 0.0
-0.02057718 -0.07311400 0.0
-0.01219187 -0.06049515 0.0
-0.00570423 -0.04556167 0.0
-0.00150941 -0.02858570 0.0
0.00000000 -0.01161366 0.0
-0.00164057 0.01161612 0.0
-0.00620016 0.03317431 0.0
-0.01322716 0.05258629 0.0
-0.02227615 0.06948866 0.0
-0.03290387 0.08362433 0.0
-0.04468046 0.09483818 0.0
-0.05719890 0.10306893 0.0
-0.07008243 0.10833820 0.0
-0.08298979 0.11073771 0.0
-0.09561822 0.11041557 0.0
-0.10770448 0.10756292 0.0
-0.11902414 0.10240129 0.0
-0.12938954 0.09517168 0.0
-0.13864678 0.08612539 0.0
-0.14667221 0.07551691 0.0
-0.15336868 0.06359895 0.0
-0.15866191 0.05061931 0.0
-0.16249726 0.03681951 0.0
-0.16483701 0.02243486 0.0
-0.16565837 0.00769568 0.0
-0.16495227 -0.00717071 0.0
-0.16272306 -0.02193745 0.0
-0.15898896 -0.03637556 0.0
-0.15378354 -0.05025146 0.0
-0.14715783 -0.06332514 0.0
-0.13918326 -0.07534914 0.0
-0.12995509 -0.08606878 0.0
-0.11959618 -0.09522392 0.0
-0.10826085 -0.10255252 0.0
-0.09613851 -0.10779623 0.0
-0.08345663 -0.11070802 0.0
-0.07048269 -0.11106200 0.0
-0.05752460 -0.10866496 0.0
-0.04492940 -0.10336952 0.0
-0.03307971 -0.09508790 0.0
-0.02238797 -0.08380574 0.0
-0.01328836 -0.06959477 0.0
-0.00622671 -0.05262332 0.0
-0.00164878 -0.03316363 0.0
0.00000000 -0.01342007 0.0
-0.00178584 0.01342326 0.0
-0.00674432 0.03813279 0.0
-0.01436358 0.06020555 0.0
-0.02414233 0.07926740 0.0
-0.03558392 0.09506593 0.0
-0.04821018 0.10746443 0.0
-0.06157275 0.11643150 0.0
-0.07526178 0.12202723 0.0
-0.08891153 0.12438746 0.0
-0.10220320 0.12370724 0.0
-0.11486512 0.12022484 0.0
-0.12667094 0.11420711 0.0
-0.13743615 0.10593690 0.0
-0.14701366 0.09570290 0.0
-0.15528882 0.08379206 0.0
-0.16217435 0.07048448 0.0
-0.16760560 0.05605057 0.0
-0.17153634 0.04075025 0.0
-0.17393529 0.02483381 0.0
-0.17478362 0.00854401 0.0
-0.17407342 -0.00788091 0.0
-0.17180727 -0.02420361 0.0
-0.16799884 -0.04018399 0.0
-0.16267461 -0.05557569 0.0
-0.15587662 -0.07012313 0.0
-0.14766607 -0.08355969 0.0
-0.13812776 -0.09560708 0.0
-0.12737508 -0.10597660 0.0
-0.11555522 -0.11437239 0.0
-0.10285426 -0.12049719 0.0
-0.08950170 -0.12406058 0.0
-0.07577379 -0.12478991 0.0
-0.06199520 -0.12244356 0.0
-0.04853840 -0.11682632 0.0
-0.03582039 -0.10780591 0.0
-0.02429637 -0.09532976 0.0
-0.01445035 -0.07944078 0.0
-0.00678306 -0.06029062 0.0
-0.00179741 -0.03814928 0.0
0.00000000 -0.01538796 0.0
-0.00194104 0.01539196 0.0
-0.00732449 0.04351623 0.0
-0.01556851 0.06844957 0.0
-0.02610813 0.08980703 0.0
-0.03838660 0.10734440 0.0
-0.05187218 0.12095002 0.0
-0.06607188 0.13063119 0.0
-0.08054128 0.13649663 0.0
-0.09489059 0.13873677 0.0
-0.10878692 0.13760357 0.0
-0.12195337 0.13339129 0.0
-0.13416564 0.12641938 0.0
-0.14524681 0.11701807 0.0
-0.15506112 0.10551721 0.0
-0.16350725 0.09223820 0.0
-0.17051177 0.07748900 0.0
-0.17602303 0.06156183 0.0
-0.18000592 0.04473314 0.0
-0.18243759 0.02726549 0.0
-0.18330441 0.00941082 0.0
-0.18260004 -0.00858527 0.0
-0.18032493 -0.02647872 0.0
-0.17648701 -0.04402192 0.0
-0.17110373 -0.06095896 0.0
-0.16420537 -0.07702149 0.0
-0.15583948 -0.09192559 0.0
-0.14607638 -0.10537018 0.0
-0.13501552 -0.11703745 0.0
-0.12279227 -0.12659563 0.0
-0.10958482 -0.13370464 0.0
-0.09562054 -0.13802486 0.0
-0.08118118 -0.13922926 0.0
-0.06660614 -0.13701860 0.0
-0.05229297 -0.13113948 0.0
-0.03869459 -0.12140429 0.0
-0.02631251 -0.10771184 0.0
-0.01568612 -0.09006717 0.0
-0.00737809 -0.06859865 0.0
-0.00195677 -0.04357060 0.0
0.00000000 -0.01753038 0.0
-0.00210769 0.01753530 0.0
-0.00794560 0.04935414 0.0
-0.01685007 0.07735404 0.0
-0.02818278 0.10113974 0.0
-0.04131854 0.12048016 0.0
-0.05566591 0.13529739 0.0