# vtk DataFile Version 4.0
2D velocity field
ASCII
DATASET STRUCTURED_GRID
DIMENSIONS 40 40 1
POINTS 1600 float
0.00000000 0.00000000 1.0
1.00000000 0.00000000 1.0
2.00000000 0.00000000 1.0
3.00000000 0.00000000 1.0
4.00000000 0.00000000 1.0
5.00000000 0.00000000 1.0
6.00000000 0.00000000 1.0
7.00000000 0.00000000 1.0
8.00000000 0.00000000 1.0
9.00000000 0.00000000 1.0
10.00000000 0.00000000 1.0
11.00000000 0.00000000 1.0
12.00000000 0.00000000 1.0
13.00000000 0.00000000 1.0
14.00000000 0.00000000 1.0
15.00000000 0.00000000 1.0
16.00000000 0.00000000 1.0
17.00000000 0.00000000 1.0
18.00000000 0.00000000 1.0
19.00000000 0.00000000 1.0
20.00000000 0.00000000 1.0
21.00000000 0.00000000 1.0
22.00000000 0.00000000 1.0
23.00000000 0.00000000 1.0
24.00000000 0.00000000 1.0
25.00000000 0.00000000 1.0
26.00000000 0.00000000 1.0
27.00000000 0.00000000 1.0
28.00000000 0.00000000 1.0
29.00000000 0.00000000 1.0
30.00000000 0.00000000 1.0
31.00000000 0.00000000 1.0
32.00000000 0.00000000 1.0
33.00000000 0.00000000 1.0
34.00000000 0.00000000 1.0
35.00000000 0.00000000 1.0
36.00000000 0.00000000 1.0
37.00000000 0.00000000 1.0
38.00000000 0.00000000 1.0
39.00000000 0.00000000 1.0
0.00000000 1.00000000 1.0
1.00000000 1.00000000 1.0
2.00000000 1.00000000 1.0
3.00000000 1.00000000 1.0
4.00000000 1.00000000 1.0
5.00000000 1.00000000 1.0
6.00000000 1.00000000 1.0
7.00000000 1.00000000 1.0
8.00000000 1.00000000 1.0
9.00000000 1.00000000 1.0
10.00000000 1.00000000 1.0
11.00000000 1.00000000 1.0
12.00000000 1.00000000 1.0
13.00000000 1.00000000 1.0
14.00000000 1.00000000 1.0
15.00000000 1.00000000 1.0
16.00000000 1.00000000 1.0
17.00000000 1.00000000 1.0
18.00000000 1.00000000 1.0
19.00000000 1.00000000 1.0
20.00000000 1.00000000 1.0
21.00000000 1.00000000 1.0
22.00000000 1.00000000 1.0
23.00000000 1.00000000 1.0
24.00000000 1.00000000 1.0
25.00000000 1.00000000 1.0
26.00000000 1.00000000 1.0
27.00000000 1.00000000 1.0
28.00000000 1.00000000 1.0
29.00000000 1.00000000 1.0
30.00000000 1.00000000 1.0
31.00000000 1.00000000 1.0
32.00000000 1.00000000 1.0
33.00000000 1.00000000 1.0
34.00000000 1.00000000 1.0
35.00000000 1.00000000 1.0
36.00000000 1.00000000 1.0
37.00000000 1.00000000 1.0
38.00000000 1.00000000 1.0
39.00000000 1.00000000 1.0
0.00000000 2.00000000 1.0
1.00000000 2.00000000 1.0
2.00000000 2.00000000 1.0
3.00000000 2.00000000 1.0
4.00000000 2.00000000 1.0
5.00000000 2.00000000 1.0
6.00000000 2.00000000 1.0
7.00000000 2.00000000 1.0
8.00000000 2.00000000 1.0
9.00000000 2.00000000 1.0
10.00000000 2.00000000 1.0
11.00000000 2.00000000 1.0
12.00000000 2.00000000 1.0
13.00000000 2.00000000 1.0
14.00000000 2.00000000 1.0
15.00000000 2.00000000 1.0
16.00000000 2.00000000 1.0
17.00000000 2.00000000 1.0
18.00000000 2.00000000 1.0
19.00000000 2.00000000 1.0
20.00000000 2.00000000 1.0
21.00000000 2.00000000 1.0
22.00000000 2.00000000 1.0
23.00000000 2.00000000 1.0
24.00000000 2.00000000 1.0
25.00000000 2.00000000 1.0
26.00000000 2.00000000 1.0
27.00000000 2.00000000 1.0
28.00000000 2.00000000 1.0
29.00000000 2.00000000 1.0
30.00000000 2.00000000 1.0
31.00000000 2.00000000 1.0
32.00000000 2.00000000 1.0
33.00000000 2.00000000 1.0
34.00000000 2.00000000 1.0
35.00000000 2.00000000 1.0
36.00000000 2.00000000 1.0
37.00000000 2.00000000 1.0
38.00000000 2.00000000 1.0
39.00000000 2.00000000 1.0
0.00000000 3.00000000 1.0
1.00000000 3.00000000 1.0
2.00000000 3.00000000 1.0
3.00000000 3.00000000 1.0
4.00000000 3.00000000 1.0
5.00000000 3.00000000 1.0
6.00000000 3.00000000 1.0
7.00000000 3.00000000 1.0
8.00000000 3.00000000 1.0
9.00000000 3.00000000 1.0
10.00000000 3.00000000 1.0
11.00000000 3.00000000 1.0
12.00000000 3.00000000 1.0
13.00000000 3.00000000 1.0
14.00000000 3.00000000 1.0
15.00000000 3.00000000 1.0
16.00000000 3.00000000 1.0
17.00000000 3.00000000 1.0
18.00000000 3.00000000 1.0
19.00000000 3.00000000 1.0
20.00000000 3.00000000 1.0
21.00000000 3.00000000 1.0
22.00000000 3.00000000 1.0
23.00000000 3.00000000 1.0
24.00000000 3.00000000 1.0
25.00000000 3.00000000 1.0
26.00000000 3.00000000 1.0
27.00000000 3.00000000 1.0
28.00000000 3.00000000 1.0
29.00000000 3.00000000 1.0
30.00000000 3.00000000 1.0
31.00000000 3.00000000 1.0
32.00000000 3.00000000 1.0
33.00000000 3.00000000 1.0
34.00000000 3.00000000 1.0
35.00000000 3.00000000 1.0
36.00000000 3.00000000 1.0
37.00000000 3.00000000 1.0
38.00000000 3.00000000 1.0
39.00000000 3.00000000 1.0
0.00000000 4.00000000 1.0
1.00000000 4.00000000 1.0
2.00000000 4.00000000 1.0
3.00000000 4.00000000 1.0
4.00000000 4.00000000 1.0
5.00000000 4.00000000 1.0
6.00000000 4.00000000 1.0
7.00000000 4.00000000 1.0
8.00000000 4.00000000 1.0
9.00000000 4.00000000 1.0
10.00000000 4.00000000 1.0
11.00000000 4.00000000 1.0
12.00000000 4.00000000 1.0
13.00000000 4.00000000 1.0
14.00000000 4.00000000 1.0
15.00000000 4.00000000 1.0
16.00000000 4.00000000 1.0
17.00000000 4.00000000 1.0
18.00000000 4.00000000 1.0
19.00000000 4.00000000 1.0
20.00000000 4.00000000 1.0
21.00000000 4.00000000 1.0
22.00000000 4.00000000 1.0
23.00000000 4.00000000 1.0
24.00000000 4.00000000 1.0
25.00000000 4.00000000 1.0
26.00000000 4.00000000 1.0
27.00000000 4.00000000 1.0
28.00000000 4.00000000 1.0
29.00000000 4.00000000 1.0
30.00000000 4.00000000 1.0
31.00000000 4.00000000 1.0
32.00000000 4.00000000 1.0
33.00000000 4.00000000 1.0
34.00000000 4.00000000 1.0
35.00000000 4.00000000 1.0
36.00000000 4.00000000 1.0
37.00000000 4.00000000 1.0
38.00000000 4.00000000 1.0
39.00000000 4.00000000 1.0
0.00000000 5.00000000 1.0
1.00000000 5.00000000 1.0
2.00000000 5.00000000 1.0
3.00000000 5.00000000 1.0
4.00000000 5.00000000 1.0
5.00000000 5.00000000 1.0
6.00000000 5.00000000 1.0
7.00000000 5.00000000 1.0
8.00000000 5.00000000 1.0
9.00000000 5.00000000 1.0
10.00000000 5.00000000 1.0
11.00000000 5.00000000 1.0
12.00000000 5.00000000 1.0
13.00000000 5.00000000 1.0
14.00000000 5.00000000 1.0
15.00000000 5.00000000 1.0
16.00000000 5.00000000 1.0
17.00000000 5.00000000 1.0
18.00000000 5.00000000 1.0
19.00000000 5.00000000 1.0
20.00000000 5.00000000 1.0
21.00000000 5.00000000 1.0
22.00000000 5.00000000 1.0
23.00000000 5.00000000 1.0
24.00000000 5.00000000 1.0
25.00000000 5.00000000 1.0
26.00000000 5.00000000 1.0
27.00000000 5.00000000 1.0
28.00000000 5.00000000 1.0
29.00000000 5.00000000 1.0
30.00000000 5.00000000 1.0
31.00000000 5.00000000 1.0
32.00000000 5.00000000 1.0
33.00000000 5.00000000 1.0
34.00000000 5.00000000 1.0
35.00000000 5.00000000 1.0
36.00000000 5.00000000 1.0
37.00000000 5.00000000 1.0
38.00000000 5.00000000 1.0
39.00000000 5.00000000 1.0
0.00000000 6.00000000 1.0
1.00000000 6.00000000 1.0
2.00000000 6.00000000 1.0
3.00000000 6.00000000 1.0
4.00000000 6.00000000 1.0
5.00000000 6.00000000 1.0
6.00000000 6.00000000 1.0
7.00000000 6.00000000 1.0
8.00000000 6.00000000 1.0
9.00000000 6.00000000 1.0
10.00000000 6.00000000 1.0
11.00000000 6.00000000 1.0
12.00000000 6.00000000 1.0
13.00000000 6.00000000 1.0
14.00000000 6.00000000 1.0
15.00000000 6.00000000 1.0
16.00000000 6.00000000 1.0
17.00000000 6.00000000 1.0
18.00000000 6.00000000 1.0
19.00000000 6.00000000 1.0
20.00000000 6.00000000 1.0
21.00000000 6.00000000 1.0
22.00000000 6.00000000 1.0
23.00000000 6.00000000 1.0
24.00000000 6.00000000 1.0
25.00000000 6.00000000 1.0
26.00000000 6.00000000 1.0
27.00000000 6.00000000 1.0
28.00000000 6.00000000 1.0
29.00000000 6.00000000 1.0
30.00000000 6.00000000 1.0
31.00000000 6.00000000 1.0
32.00000000 6.00000000 1.0
33.00000000 6.00000000 1.0
34.00000000 6.00000000 1.0
35.00000000 6.00000000 1.0
36.00000000 6.00000000 1.0
37.00000000 6.00000000 1.0
38.00000000 6.00000000 1.0
39.00000000 6.00000000 1.0
0.00000000 7.00000000 1.0
1.00000000 7.00000000 1.0
2.00000000 7.00000000 1.0
3.00000000 7.00000000 1.0
4.00000000 7.00000000 1.0
5.00000000 7.00000000 1.0
6.00000000 7.00000000 1.0
7.00000000 7.00000000 1.0
8.00000000 7.00000000 1.0
9.00000000 7.00000000 1.0
10.00000000 7.00000000 1.0
11.00000000 7.00000000 1.0
12.00000000 7.00000000 1.0
13.00000000 7.00000000 1.0
14.00000000 7.00000000 1.0
15.00000000 7.00000000 1.0
16.00000000 7.00000000 1.0
17.00000000 7.00000000 1.0
18.00000000 7.00000000 1.0
19.00000000 7.00000000 1.0
20.00000000 7.00000000 1.0
21.00000000 7.00000000 1.0
22.00000000 7.00000000 1.0
23.00000000 7.00000000 1.0
24.00000000 7.00000000 1.0
25.00000000 7.00000000 1.0
26.00000000 7.00000000 1.0
27.00000000 7.00000000 1.0
28.00000000 7.00000000 1.0
29.00000000 7.00000000 1.0
30.00000000 7.00000000 1.0
31.00000000 7.00000000 1.0
32.00000000 7.00000000 1.0
33.00000000 7.00000000 1.0
34.00000000 7.00000000 1.0
35.00000000 7.00000000 1.0
36.00000000 7.00000000 1.0
37.00000000 7.00000000 1.0
38.00000000 7.00000000 1.0
39.00000000 7.00000000 1.0
0.00000000 8.00000000 1.0
1.00000000 8.00000000 1.0
2.00000000 8.00000000 1.0
3.00000000 8.00000000 1.0
4.00000000 8.00000000 1.0
5.00000000 8.00000000 1.0
6.00000000 8.00000000 1.0
7.00000000 8.00000000 1.0
8.00000000 8.00000000 1.0
9.00000000 8.00000000 1.0
10.00000000 8.00000000 1.0
11.00000000 8.00000000 1.0
12.00000000 8.00000000 1.0
13.00000000 8.00000000 1.0
14.00000000 8.00000000 1.0
15.00000000 8.00000000 1.0
16.00000000 8.00000000 1.0
17.00000000 8.00000000 1.0
18.00000000 8.00000000 1.0
19.00000000 8.00000000 1.0
20.00000000 8.00000000 1.0
21.00000000 8.00000000 1.0
22.00000000 8.00000000 1.0
23.00000000 8.00000000 1.0
24.00000000 8.00000000 1.0
25.00000000 8.00000000 1.0
26.00000000 8.00000000 1.0
27.00000000 8.00000000 1.0
28.00000000 8.00000000 1.0
29.00000000 8.00000000 1.0
30.00000000 8.00000000 1.0
31.00000000 8.00000000 1.0
32.00000000 8.00000000 1.0
33.00000000 8.00000000 1.0
34.00000000 8.00000000 1.0
35.00000000 8.00000000 1.0
36.00000000 8.00000000 1.0
37.00000000 8.00000000 1.0
38.00000000 8.00000000 1.0
39.00000000 8.00000000 1.0
0.00000000 9.00000000 1.0
1.00000000 9.00000000 1.0
2.00000000 9.00000000 1.0
3.00000000 9.00000000 1.0
4.00000000 9.00000000 1.0
5.00000000 9.00000000 1.0
6.00000000 9.00000000 1.0
7.00000000 9.00000000 1.0
8.00000000 9.00000000 1.0
[...]
POINT_DATA 1600
VECTORS velocity double
0.00000000 0.00001384 0.0
0.00000026 -0.00001393 0.0
0.00000041 0.00001535 0.0
0.00000049 0.00007021 0.0
0.00000048 0.00012964 0.0
0.00000041 0.00018370 0.0
0.00000030 0.00022839 0.0
0.00000015 0.00026242 0.0
-0.00000002 0.00028574 0.0
-0.00000020 0.00029887 0.0
-0.00000038 0.00030258 0.0
-0.00000055 0.00029779 0.0
-0.00000072 0.00028544 0.0
-0.00000087 0.00026649 0.0
-0.00000101 0.00024188 0.0
-0.00000113 0.00021250 0.0
-0.00000123 0.00017919 0.0
-0.00000131 0.00014276 0.0
-0.00000137 0.00010395 0.0
-0.00000140 0.00006347 0.0
-0.00000142 0.00002198 0.0
-0.00000140 -0.00001986 0.0
-0.00000137 -0.00006140 0.0
-0.00000131 -0.00010199 0.0
-0.00000123 -0.00014094 0.0
-0.00000113 -0.00017753 0.0
-0.00000101 -0.00021100 0.0
-0.00000087 -0.00024055 0.0
-0.00000072 -0.00026531 0.0
-0.00000055 -0.00028437 0.0
-0.00000038 -0.00029678 0.0
-0.00000020 -0.00030159 0.0
-0.00000002 -0.00029782 0.0
0.00000015 -0.00028459 0.0
0.00000030 -0.00026112 0.0
0.00000041 -0.00022691 0.0
0.00000048 -0.00018204 0.0
0.00000049 -0.00012780 0.0
0.00000040 -0.00006825 0.0
0.00000026 -0.00001337 0.0
0.00000000 0.00003943 0.0
0.00007838 -0.00003988 0.0
0.00000752 0.00010428 0.0
-0.00024248 0.00033908 0.0
-0.00068346 0.00059046 0.0
-0.00130034 0.00082139 0.0
-0.00206515 0.00101483 0.0
-0.00294454 0.00116404 0.0
-0.00390387 0.00126759 0.0
-0.00490937 0.00132685 0.0
-0.00592935 0.00134465 0.0
-0.00693486 0.00132463 0.0
-0.00790000 0.00127081 0.0
-0.00880203 0.00118732 0.0
-0.00962136 0.00107827 0.0
-0.01034146 0.00094764 0.0
-0.01094871 0.00079923 0.0
-0.01143224 0.00063661 0.0
-0.01178375 0.00046317 0.0
-0.01199742 0.00028210 0.0
-0.01206975 0.00009647 0.0
-0.01199954 -0.00009075 0.0
-0.01178782 -0.00027660 0.0
-0.01143795 -0.00045808 0.0
-0.01095563 -0.00063210 0.0
-0.01034906 -0.00079541 0.0
-0.00962909 -0.00094456 0.0
-0.00880934 -0.00107590 0.0
-0.00790642 -0.00118557 0.0
-0.00694004 -0.00126953 0.0
-0.00593309 -0.00132363 0.0
-0.00491164 -0.00134368 0.0
-0.00390483 -0.00132567 0.0
-0.00294451 -0.00126599 0.0
-0.00206457 -0.00116183 0.0
-0.00129974 -0.00101192 0.0
-0.00068337 -0.00081777 0.0
-0.00024333 -0.00058623 0.0
0.00000549 -0.00033450 0.0
0.00007540 -0.00009988 0.0
0.00000000 0.00000915 0.0
0.00000408 -0.00000997 0.0
-0.00026211 0.00037046 0.0
-0.00083408 0.00091106 0.0
-0.00172268 0.00147906 0.0
-0.00290390 0.00200262 0.0
-0.00433387 0.00244480 0.0
-0.00595857 0.00278874 0.0
-0.00772013 0.00302915 0.0
-0.00956074 0.00316746 0.0
-0.01142513 0.00320904 0.0
-0.01326206 0.00316157 0.0
-0.01502516 0.00303390 0.0
-0.01667332 0.00283548 0.0
-0.01817089 0.00257584 0.0
-0.01948759 0.00226433 0.0
-0.02059832 0.00190996 0.0
-0.02148301 0.00152129 0.0
-0.02212628 0.00110644 0.0
-0.02251730 0.00067312 0.0
-0.02264958 0.00022875 0.0
-0.02252088 -0.00021945 0.0
-0.02213318 -0.00066431 0.0
-0.02149270 -0.00109856 0.0
-0.02061008 -0.00151472 0.0
-0.01950053 -0.00190495 0.0
-0.01818411 -0.00226098 0.0
-0.01668590 -0.00257410 0.0
-0.01503632 -0.00283516 0.0
-0.01327120 -0.00303465 0.0
-0.01143189 -0.00316293 0.0
-0.00956506 -0.00321051 0.0
-0.00772225 -0.00316848 0.0
-0.00595898 -0.00302925 0.0
-0.00433327 -0.00278754 0.0
-0.00290310 -0.00244209 0.0
-0.00172244 -0.00199843 0.0
-0.00083497 -0.00147370 0.0
-0.00026429 -0.00090518 0.0
0.00000105 -0.00036521 0.0
0.00000000 -0.00013429 0.0
-0.00011096 0.00013332 0.0
-0.00062906 0.00088856 0.0
-0.00156111 0.00184311 0.0
-0.00290319 0.00282113 0.0
-0.00461966 0.00371909 0.0
-0.00665395 0.00447909 0.0
-0.00893727 0.00507206 0.0
-0.01139521 0.00548708 0.0
-0.01395247 0.00572471 0.0
-0.01653617 0.00579275 0.0
-0.01907801 0.00570340 0.0
-0.02151559 0.00547149 0.0
-0.02379325 0.00511314 0.0
-0.02586237 0.00464496 0.0
-0.02768145 0.00408342 0.0
-0.02921600 0.00344451 0.0
-0.03043827 0.00274356 0.0
-0.03132702 0.00199519 0.0
-0.03186723 0.00121333 0.0
-0.03204991 0.00041143 0.0
-0.03187195 -0.00039741 0.0
-0.03133610 -0.00120015 0.0
-0.03045104 -0.00198363 0.0
-0.02923152 -0.00273425 0.0
-0.02769860 -0.00343787 0.0
-0.02587993 -0.00407964 0.0
-0.02381006 -0.00464397 0.0
-0.02153062 -0.00511460 0.0
-0.01909045 -0.00547482 0.0
-0.01654555 -0.00570783 0.0
-0.01395867 -0.00579739 0.0
-0.01139849 -0.00572866 0.0
-0.00893823 -0.00548951 0.0
-0.00665342 -0.00507235 0.0
-0.00461861 -0.00447690 0.0
-0.00290254 -0.00371449 0.0
-0.00156154 -0.00281469 0.0
-0.00063079 -0.00183593 0.0
-0.00011365 -0.00088235 0.0
0.00000000 -0.00039281 0.0
-0.00022812 0.00039184 0.0
-0.00101091 0.00167135 0.0
-0.00231338 0.00314558 0.0
-0.00410664 0.00461439 0.0
-0.00633839 0.00595083 0.0
-0.00893831 0.00707902 0.0
-0.01182447 0.00795821 0.0
-0.01490900 0.00857161 0.0
-0.01810290 0.00891861 0.0
-0.02131954 0.00900938 0.0
-0.02447724 0.00886110 0.0
-0.02750101 0.00849526 0.0
-0.03032359 0.00793572 0.0
-0.03288600 0.00720737 0.0
-0.03513772 0.00633514 0.0
-0.03703663 0.00534342 0.0
-0.03854880 0.00425573 0.0
-0.03964818 0.00309457 0.0
-0.04031636 0.00188151 0.0
-0.04054228 0.00063735 0.0
-0.04032214 -0.00061755 0.0
-0.03965933 -0.00186297 0.0
-0.03856449 -0.00307846 0.0
-0.03705574 -0.00424299 0.0
-0.03515890 -0.00533471 0.0
-0.03290780 -0.00633074 0.0
-0.03034459 -0.00720719 0.0
-0.02751994 -0.00793925 0.0
-0.02449310 -0.00850165 0.0
-0.02133171 -0.00886922 0.0
-0.01811119 -0.00901791 0.0
-0.01491364 -0.00892621 0.0
-0.01182610 -0.00857705 0.0
-0.00893789 -0.00796055 0.0
-0.00633702 -0.00707777 0.0
-0.00410542 -0.00594609 0.0
-0.00231315 -0.00460696 0.0
-0.00101207 -0.00313700 0.0
-0.00023051 -0.00166391 0.0
0.00000000 -0.00075722 0.0
-0.00033606 0.00075635 0.0
-0.00137570 0.00271098 0.0
-0.00304239 0.00481228 0.0
-0.00527779 0.00684979 0.0
-0.00800879 0.00868183 0.0
-0.01114903 0.01021926 0.0
-0.01460283 0.01141201 0.0
-0.01826969 0.01223848 0.0
-0.02204853 0.01269745 0.0
-0.02584113 0.01280198 0.0
-0.02955480 0.01257477 0.0
-0.03310427 0.01204473 0.0
-0.03641292 0.01124437 0.0
-0.03941343 0.01020787 0.0
-0.04204804 0.00896975 0.0
-0.04426854 0.00756393 0.0
-0.04603606 0.00602325 0.0
-0.04732073 0.00437924 0.0
-0.04810142 0.00266220 0.0
-0.04836545 0.00090138 0.0
-0.04810845 -0.00087455 0.0
-0.04733429 -0.00263713 0.0
-0.04605519 -0.00435756 0.0
-0.04429192 -0.00600627 0.0
-0.04207406 -0.00755257 0.0
-0.03944037 -0.00896443 0.0
-0.03643907 -0.01020848 0.0
-0.03312809 -0.01125023 0.0
-0.02957505 -0.01205469 0.0
-0.02585700 -0.01258727 0.0
-0.02205969 -0.01281522 0.0
-0.01827633 -0.01270957 0.0
-0.01460561 -0.01224777 0.0
-0.01114901 -0.01141715 0.0
-0.00800725 -0.01021953 0.0
-0.00527603 -0.00867731 0.0
-0.00304150 -0.00684149 0.0
-0.00137631 -0.00480219 0.0
-0.00033820 -0.00270202 0.0
0.00000000 -0.00121702 0.0
-0.00043326 0.00121633 0.0
-0.00171550 0.00399322 0.0
-0.00373387 0.00683065 0.0
-0.00640010 0.00951601 0.0
-0.00961798 0.01189970 0.0
-0.01328287 0.01388414 0.0
-0.01728393 0.01541307 0.0
-0.02150754 0.01646209 0.0
-0.02584083 0.01703074 0.0
-0.03017487 0.01713601 0.0
-0.03440720 0.01680710 0.0
-0.03844374 0.01608127 0.0
-0.04220004 0.01500066 0.0
-0.04560192 0.01360975 0.0
-0.04858581 0.01195363 0.0
-0.05109865 0.01007676 0.0
-0.05309767 0.00802227 0.0
-0.05455004 0.00583161 0.0
-0.05543252 0.00354468 0.0
-0.05573119 0.00120005 0.0
-0.05544120 -0.00116454 0.0
-0.05456681 -0.00351153 0.0
-0.05312140 -0.00580297 0.0
-0.05112776 -0.00799990 0.0
-0.04861840 -0.01006193 0.0
-0.04563591 -0.01194692 0.0
-0.04223335 -0.01361104 0.0
-0.03847448 -0.01500910 0.0
-0.03443379 -0.01609537 0.0
-0.03019624 -0.01682482 0.0
-0.02585646 -0.01715500 0.0
-0.02151751 -0.01704852 0.0
-0.01728890 -0.01647637 0.0
-0.01328400 -0.01542205 0.0
-0.00961675 -0.01388678 0.0
-0.00639809 -0.01189598 0.0
-0.00373247 -0.00950710 0.0
-0.00171566 -0.00681900 0.0
-0.00043520 -0.00398248 0.0
0.00000000 -0.00176375 0.0
-0.00052162 0.00176328 0.0
-0.00203332 0.00550491 0.0
-0.00439158 0.00918891 0.0
-0.00747963 0.01260406 0.0
-0.01117722 0.01559730 0.0
-0.01535974 0.01806666 0.0
-0.01989960 0.01995292 0.0
-0.02466892 0.02123141 0.0
-0.02954256 0.02190438 0.0
-0.03440089 0.02199434 0.0
-0.03913216 0.02153836 0.0
-0.04363425 0.02058337 0.0
-0.04781584 0.01918225 0.0
-0.05159697 0.01739089 0.0
-0.05490931 0.01526598 0.0
-0.05769597 0.01286342 0.0
-0.05991117 0.01023747 0.0
-0.06151985 0.00744029 0.0
-0.06249721 0.00452205 0.0
-0.06282838 0.00153122 0.0
-0.06250818 -0.00148473 0.0
-0.06154109 -0.00447862 0.0
-0.05994132 -0.00740273 0.0
-0.05773312 -0.01020810 0.0
-0.05495116 -0.01284389 0.0
-0.05164098 -0.01525710 0.0
-0.04785944 -0.01739258 0.0
-0.04367506 -0.01919348 0.0
-0.03916815 -0.02060228 0.0
-0.03443060 -0.02156238 0.0
-0.02956518 -0.02202042 0.0
-0.02468436 -0.02192934 0.0
-0.01990848 -0.02125225 0.0
-0.01536332 -0.01996720 0.0
-0.01117722 -0.01807288 0.0
-0.00747794 -0.01559525 0.0
-0.00439001 -0.01259503 0.0
-0.00203319 -0.00917582 0.0
-0.00052341 -0.00549225 0.0
0.00000000 -0.00239198 0.0
-0.00060412 0.00239176 0.0
-0.00233680 0.00723759 0.0
-0.00502824 0.01188034 0.0
-0.00853486 0.01611067 0.0
-0.01271211 0.01977454 0.0
-0.01741407 0.02276862 0.0
-0.02249487 0.02503372 0.0
-0.02781102 0.02654756 0.0
-0.03322411 0.02731747 0.0
-0.03860334 0.02737357 0.0
-0.04382761 0.02676263 0.0
-0.04878706 0.02554282 0.0
-0.05338407 0.02377925 0.0
-0.05753365 0.02154048 0.0
-0.06116353 0.01889586 0.0
-0.06421381 0.01591369 0.0
-0.06663648 0.01266014 0.0
-0.06839488 0.00919869 0.0
-0.06946314 0.00559031 0.0
-0.06982575 0.00189382 0.0
-0.06947727 -0.00183321 0.0
-0.06842229 -0.00553361 0.0
-0.06667551 -0.00914951 0.0
-0.06426214 -0.01262147 0.0
-0.06121832 -0.01588771 0.0
-0.05759175 -0.01888367 0.0
-0.05344226 -0.02154207 0.0
-0.04884231 -0.02379343 0.0
-0.04387727 -0.02556731 0.0
-0.03864540 -0.02679425 0.0
-0.03325733 -0.02740849 0.0
-0.02783504 -0.02735163 0.0
-0.02251022 -0.02657706 0.0
-0.01742210 -0.02505532 0.0
-0.01271476 -0.02278021 0.0
-0.00853445 -0.01977556 0.0
-0.00502704 -0.01610243 0.0
-0.00233663 -0.01186623 0.0
-0.00060582 -0.00722306 0.0
0.00000000 -0.00309954 0.0
-0.00068392 0.00309959 0.0
-0.00263538 0.00918905 0.0
-0.00566069 0.01490565 0.0
-0.00959069 0.02004067 0.0
-0.01425619 0.02444004 0.0
-0.01948879 0.02800122 0.0
-0.02512276 0.03066769 0.0
-0.03099751 0.03242231 0.0
-0.03696019 0.03328014 0.0
-0.04286801 0.03328139 0.0
-0.04859016 0.03248478 0.0
-0.05400906 0.03096172 0.0
-0.05902112 0.02879130 0.0
-0.06353686 0.02605622 0.0
-0.06748076 0.02283975 0.0
-0.07079062 0.01922356 0.0
-0.07341692 0.01528643 0.0
-0.07532200 0.01110377 0.0
-0.07647936 0.00674767 0.0
-0.07687315 0.00228761 0.0
-0.07649775 -0.00220861 0.0
-0.07535773 -0.00667363 0.0
-0.07346797 -0.01103927 0.0
-0.07085412 -0.01523532 0.0
-0.06755319 -0.01918864 0.0
-0.06361429 -0.02282257 0.0
-0.05909947 -0.02605689 0.0
-0.05408443 -0.02880847 0.0
-0.04865908 -0.03099267 0.0
-0.04292772 -0.03252561 0.0
-0.03700884 -0.03332736 0.0
-0.03103435 -0.03332612 0.0
-0.02514812 -0.03246329 0.0
-0.01950404 -0.03069940 0.0
-0.01426355 -0.02802069 0.0
-0.00959292 -0.02444619 0.0
-0.00566066 -0.02003470 0.0
-0.00263552 -0.01489137 0.0
-0.00068563 -0.00917294 0.0
0.00000000 -0.00388740 0.0
-0.00076415 0.00388776 0.0
-0.00293893 0.01136383 0.0
-0.00630740 0.01827412 0.0
-0.01067496 0.02440823 0.0
-0.01584701 0.02961209 0.0
-0.02163124 0.03378544 0.0
-0.02784039 0.03687684 0.0
-0.03429518 0.03887709 0.0
-0.04082695 0.03981192 0.0
-0.04728002 0.03973445 0.0
-0.05351332 0.03871807 0.0
-0.05940144 0.03684984 0.0
-0.06483504 0.03422490 0.0
-0.06972066 0.03094184 0.0
-0.07398015 0.02709924 0.0
-0.07754975 0.02279316 0.0
-0.08037910 0.01811578 0.0
-0.08243015 0.01315482 0.0
-0.08367628 0.00799381 0.0
-0.08410155 0.00271289 0.0
-0.08370027 -0.00260989 0.0
-0.08247685 -0.00789706 0.0
-0.08044601 -0.01307010 0.0
-0.07763334 -0.01804800 0.0
-0.07407602 -0.02274596 0.0
-0.06982390 -0.02707470 0.0
-0.06494047 -0.03094031 0.0
-0.05950404 -0.03424490 0.0
-0.05360853 -0.03688818 0.0
-0.04736411 -0.03877003 0.0
-0.04089725 -0.03979421 0.0
-0.03435031 -0.03987306 0.0
-0.02788036 -0.03893324 0.0
-0.02165738 -0.03692238 0.0
-0.01586181 -0.03381626 0.0
-0.01068170 -0.02962630 0.0
-0.00630964 -0.02440675 0.0
-0.00293990 -0.01826111 0.0
-0.00076601 -0.01134683 0.0
0.00000000 -0.00475956 0.0
-0.00084775 0.00476025 0.0
-0.00325731 0.01377339 0.0
-0.00698728 0.02200409 0.0
-0.01181658 0.02923753 0.0
-0.01752366 0.03531916 0.0
-0.02389044 0.04015222 0.0
-0.03070622 0.04369262 0.0
-0.03777120 0.04594207 0.0
-0.04489950 0.04694022 0.0
-0.05192151 0.04675647 0.0
-0.05868539 0.04548195 0.0
-0.06505778 0.04322224 0.0
-0.07092387 0.04009099 0.0
-0.07618673 0.03620470 0.0
-0.08076630 0.03167881 0.0
-0.08459806 0.02662492 0.0
-0.08763157 0.02114929 0.0
-0.08982910 0.01535235 0.0
-0.09116440 0.00932911 0.0
-0.09162179 0.00317028 0.0
-0.09119558 -0.00303611 0.0
-0.08988988 -0.00920276 0.0
-0.08771889 -0.01524109 0.0
-0.08470755 -0.02105934 0.0
-0.08089252 -0.02656098 0.0
-0.07632352 -0.03164370 0.0
-0.07106471 -0.03619912 0.0
-0.06519623 -0.04011338 0.0
-0.05881549 -0.04326891 0.0
-0.05203824 -0.04554728 0.0
-0.04499909 -0.04683336 0.0
-0.03785144 -0.04702071 0.0
-0.03076660 -0.04601807 0.0
-0.02393216 -0.04375682 0.0
-0.01754942 -0.04019900 0.0
-0.01183023 -0.03534549 0.0
-0.00699322 -0.02924376 0.0
-0.00325978 -0.02199455 0.0
-0.00084994 -0.01375667 0.0
0.00000000 -0.00572285 0.0
-0.00093753 0.00572391 0.0
-0.00360013 0.01643598 0.0
-0.00771907 0.02612302 0.0
-0.01304445 0.03456291 0.0
-0.01932530 0.04160001 0.0
-0.02631530 0.04714221 0.0
-0.03377792 0.05115524 0.0
-0.04149087 0.05365502 0.0
-0.04924951 0.05469886 0.0
-0.05686929 0.05437624 0.0
-0.06418710 0.05279976 0.0
-0.07106170 0.05009683 0.0
-0.07737318 0.04640247 0.0
-0.08302189 0.04185341 0.0
-0.08792675 0.03658368 0.0
-0.09202343 0.03072159 0.0
-0.09526234 0.02438820 0.0
-0.09760687 0.01769687 0.0
-0.09903177 0.01075401 0.0
-0.09952199 0.00366050 0.0
-0.09907194 -0.00348615 0.0
-0.09768529 -0.01058940 0.0
-0.09537528 -0.01755110 0.0
-0.09216552 -0.02426910 0.0
-0.08809130 -0.03063519 0.0
-0.08320124 -0.03653376 0.0
-0.07755917 -0.04184119 0.0
-0.07124613 -0.04642642 0.0
-0.06436228 -0.05015275 0.0
-0.05702854 -0.05288102 0.0
-0.04938764 -0.05447426 0.0
-0.04160453 -0.05480382 0.0
-0.03386585 -0.05375675 0.0
-0.02637838 -0.05124429 0.0
-0.01936641 -0.04721097 0.0
-0.01306803 -0.04164386 0.0
-0.00773052 -0.03458126 0.0
-0.00360496 -0.02612011 0.0
-0.00094028 -0.01642134 0.0
0.00000000 -0.00678688 0.0
-0.00103619 0.00678834 0.0
-0.00397674 0.01937653 0.0
-0.00852111 0.03066739 0.0
-0.01438695 0.04042874 0.0
-0.02129029 0.04850336 0.0
-0.02895329 0.05480521 0.0
-0.03711079 0.05931273 0.0
-0.04551569 0.06205992 0.0
-0.05394298 0.06312615 0.0
-0.06219223 0.06262548 0.0
-0.07008879 0.06069632 0.0
-0.07748375 0.05749179 0.0
-0.08425287 0.05317158 0.0
-0.09029473 0.04789527 0.0
-0.09552844 0.04181739 0.0
-0.09989107 0.03508422 0.0
-0.10333507 0.02783219 0.0
-0.10582590 0.02018770 0.0
-0.10734007 0.01226818 0.0
-0.10786363 0.00418406 0.0
-0.10739124 -0.00395854 0.0
-0.10592593 -0.01205472 0.0
-0.10347944 -0.01999759 0.0
-0.10007328 -0.02767526 0.0
-0.09574032 -0.03496816 0.0
-0.09052686 -0.04174722 0.0
-0.08449511 -0.04787294 0.0
-0.07772581 -0.05319572 0.0
-0.07032084 -0.05755772 0.0
-0.06240554 -0.06079632 0.0
-0.05413052 -0.06274928 0.0
-0.04567261 -0.06326173 0.0
-0.03723477 -0.06219458 0.0
-0.02904472 -0.05943434 0.0
-0.02135208 -0.05490360 0.0
-0.01442418 -0.04857176 0.0
-0.00854034 -0.04046510 0.0
-0.00398499 -0.03067545 0.0
-0.00103979 -0.01936654 0.0
0.00000000 -0.00796391 0.0
-0.00114632 0.00796581 0.0
-0.00439625 0.02262645 0.0
-0.00941132 0.03568247 0.0
-0.01587161 0.04688903 0.0
-0.02345549 0.05608723 0.0
-0.03184940 0.06319912 0.0
-0.04075613 0.06821947 0.0
-0.04990126 0.07120505 0.0
-0.05903770 0.07226258 0.0
-0.06794835 0.07153613 0.0
-0.07644699 0.06919496 0.0
-0.08437770 0.06542250 0.0
-0.09161298 0.06040687 0.0
-0.09805113 0.05433342 0.0
-0.10361300 0.04737926 0.0
-0.10823865 0.03970987 0.0
-0.11188400 0.03147754 0.0
-0.11451785 0.02282155 0.0
-0.11611938 0.01386971 0.0
-0.11667630 0.00474098 0.0
-0.11618371 -0.00445114 0.0
-0.11464374 -0.01359468 0.0
-0.11206607 -0.02257526 0.0
-0.10846911 -0.03127222 0.0
-0.10388200 -0.03955527 0.0
-0.09834724 -0.04728198 0.0
-0.09192377 -0.05429641 0.0
-0.08469038 -0.06042910 0.0
-0.07674919 -0.06549892 0.0
-0.06822883 -0.06931668 0.0
-0.05928713 -0.07169097 0.0
-0.05011286 -0.07243599 0.0
-0.04092615 -0.07138129 0.0
-0.03197741 -0.06838309 0.0
-0.02354431 -0.06333670 0.0
-0.01592697 -0.05618910 0.0
-0.00944106 -0.04695100 0.0
-0.00440925 -0.03570725 0.0
-0.00115115 -0.02262463 0.0
0.00000000 -0.00926886 0.0
-0.00127049 0.00927127 0.0
-0.00486761 0.02622356 0.0
-0.01040713 0.04122198 0.0
-0.01752492 0.05400681 0.0
-0.02585566 0.06441797 0.0
-0.03504503 0.07238849 0.0
-0.04475972 0.07793415 0.0
-0.05469510 0.08114043 0.0
-0.06458038 0.08214786 0.0
-0.07418124 0.08113698 0.0
-0.08330030 0.07831402 0.0
-0.09177575 0.07389795 0.0
-0.09947854 0.06810965 0.0
-0.10630863 0.06116351 0.0
-0.11219075 0.05326138 0.0
-0.11706995 0.04458907 0.0
-0.12090748 0.03531506 0.0
-0.12367697 0.02559104 0.0
-0.12536141 0.01555416 0.0
-0.12595087 0.00533044 0.0
-0.12544110 -0.00496091 0.0
-0.12383311 -0.01520267 0.0
-0.12113374 -0.02527463 0.0
-0.11735714 -0.03504882 0.0
-0.11252717 -0.04438524 0.0
-0.10668061 -0.05312854 0.0
-0.09987103 -0.06110598 0.0
-0.09217313 -0.06812700 0.0
-0.08368719 -0.07398486 0.0
-0.07454341 -0.07846045 0.0
-0.06490568 -0.08132870 0.0
-0.05497431 -0.08236737 0.0
-0.04498719 -0.08136840 0.0
-0.03521917 -0.07815111 0.0
-0.02597896 -0.07257690 0.0
-0.01760366 -0.06456439 0.0
-0.01045062 -0.05410404 0.0
-0.00488694 -0.04127093 0.0
-0.00127699 -0.02623459 0.0
0.00000000 -0.01071932 0.0
-0.00141126 0.01072230 0.0
-0.00539966 0.03021196 0.0
-0.01152546 0.04734777 0.0
-0.01937201 0.06185336 0.0
-0.02852292 0.07356888 0.0
-0.03857690 0.08244246 0.0
-0.04915989 0.08851713 0.0
-0.05993400 0.09191454 0.0
-0.07060320 0.09281706 0.0
-0.08091582 0.09144960 0.0
-0.09066430 0.08806250 0.0
-0.09968280 0.08291645 0.0
-0.10784311 0.07626996 0.0
-0.11504954 0.06836994 0.0
-0.12123338 0.05944522 0.0
-0.12634729 0.04970298 0.0
-0.13036005 0.03932782 0.0
-0.13325201 0.02848300 0.0
-0.13501133 0.01731349 0.0
-0.13563128 0.00595038 0.0
-0.13510852 -0.00548367 0.0
-0.13344266 -0.01686852 0.0
-0.13063686 -0.02808044 0.0
-0.12669958 -0.03898610 0.0
-0.12164751 -0.04943731 0.0
-0.11550940 -0.05926665 0.0
-0.10833082 -0.06828456 0.0
-0.10017953 -0.07627829 0.0
-0.09115124 -0.08301315 0.0
-0.08137524 -0.08823645 0.0
-0.07101957 -0.09168436 0.0
-0.06029506 -0.09309188 0.0
-0.04945755 -0.09220590 0.0
-0.03880794 -0.08880072 0.0
-0.02868919 -0.08269565 0.0
-0.01948024 -0.07377334 0.0
-0.01158650 -0.06199778 0.0
-0.00542718 -0.04743025 0.0
-0.00141994 -0.03024182 0.0
0.00000000 -0.01233558 0.0
-0.00157119 0.01233922 0.0
-0.00600116 0.03464192 0.0
-0.01278270 0.05412931 0.0
-0.02143645 0.07050711 0.0
-0.03148591 0.08361834 0.0
-0.04247555 0.09343210 0.0
-0.05398529 0.10002686 0.0
-0.06564080 0.10357005 0.0
-0.07711959 0.10429584 0.0
-0.08815310 0.10248311 0.0
-0.09852543 0.09843484 0.0
-0.10806947 0.09246048 0.0
-0.11666114 0.08486162 0.0
-0.12421262 0.07592142 0.0
-0.13066522 0.06589782 0.0
-0.13598235 0.05502011 0.0
-0.14014310 0.04348857 0.0
-0.14313672 0.03147662 0.0
-0.14495817 0.01913493 0.0
-0.14560486 0.00659707 0.0
-0.14507475 -0.00601378 0.0
-0.14336569 -0.01857758 0.0
-0.14047618 -0.03096994 0.0
-0.13640741 -0.04305487 0.0
-0.13116663 -0.05467809 0.0
-0.12477178 -0.06566151 0.0
-0.11725714 -0.07579919 0.0
-0.10868003 -0.08485539 0.0
-0.09912792 -0.09256526 0.0
-0.08872579 -0.09863859 0.0
-0.07764297 -0.10276717 0.0
-0.06609893 -0.10463592 0.0
-0.05436700 -0.10393783 0.0
-0.04277539 -0.10039233 0.0
-0.03170466 -0.09376638 0.0
-0.02158108 -0.08389692 0.0
-0.01286566 -0.07071319 0.0
-0.00603902 -0.05425688 0.0
-0.00158268 -0.03469816 0.0
0.00000000 -0.01414074 0.0
-0.00175292 0.01414514 0.0
-0.00668087 0.03956987 0.0
-0.01419469 0.06164312 0.0
-0.02373984 0.08005226 0.0
-0.03476892 0.09464742 0.0
-0.04676367 0.10542685 0.0