# vtk DataFile Version 4.0
2D velocity field
ASCII
DATASET STRUCTURED_GRID
DIMENSIONS 40 40 1
POINTS 1600 float
0.00000000 0.00000000 1.0
1.00000000 0.00000000 1.0
2.00000000 0.00000000 1.0
3.00000000 0.00000000 1.0
4.00000000 0.00000000 1.0
5.00000000 0.00000000 1.0
6.00000000 0.00000000 1.0
7.00000000 0.00000000 1.0
8.00000000 0.00000000 1.0
9.00000000 0.00000000 1.0
10.00000000 0.00000000 1.0
11.00000000 0.00000000 1.0
12.00000000 0.00000000 1.0
13.00000000 0.00000000 1.0
14.00000000 0.00000000 1.0
15.00000000 0.00000000 1.0
16.00000000 0.00000000 1.0
17.00000000 0.00000000 1.0
18.00000000 0.00000000 1.0
19.00000000 0.00000000 1.0
20.00000000 0.00000000 1.0
21.00000000 0.00000000 1.0
22.00000000 0.00000000 1.0
23.00000000 0.00000000 1.0
24.00000000 0.00000000 1.0
25.00000000 0.00000000 1.0
26.00000000 0.00000000 1.0
27.00000000 0.00000000 1.0
28.00000000 0.00000000 1.0
29.00000000 0.00000000 1.0
30.00000000 0.00000000 1.0
31.00000000 0.00000000 1.0
32.00000000 0.00000000 1.0
33.00000000 0.00000000 1.0
34.00000000 0.00000000 1.0
35.00000000 0.00000000 1.0
36.00000000 0.00000000 1.0
37.00000000 0.00000000 1.0
38.00000000 0.00000000 1.0
39.00000000 0.00000000 1.0
0.00000000 1.00000000 1.0
1.00000000 1.00000000 1.0
2.00000000 1.00000000 1.0
3.00000000 1.00000000 1.0
4.00000000 1.00000000 1.0
5.00000000 1.00000000 1.0
6.00000000 1.00000000 1.0
7.00000000 1.00000000 1.0
8.00000000 1.00000000 1.0
9.00000000 1.00000000 1.0
10.00000000 1.00000000 1.0
11.00000000 1.00000000 1.0
12.00000000 1.00000000 1.0
13.00000000 1.00000000 1.0
14.00000000 1.00000000 1.0
15.00000000 1.00000000 1.0
16.00000000 1.00000000 1.0
17.00000000 1.00000000 1.0
18.00000000 1.00000000 1.0
19.00000000 1.00000000 1.0
20.00000000 1.00000000 1.0
21.00000000 1.00000000 1.0
22.00000000 1.00000000 1.0
23.00000000 1.00000000 1.0
24.00000000 1.00000000 1.0
25.00000000 1.00000000 1.0
26.00000000 1.00000000 1.0
27.00000000 1.00000000 1.0
28.00000000 1.00000000 1.0
29.00000000 1.00000000 1.0
30.00000000 1.00000000 1.0
31.00000000 1.00000000 1.0
32.00000000 1.00000000 1.0
33.00000000 1.00000000 1.0
34.00000000 1.00000000 1.0
35.00000000 1.00000000 1.0
36.00000000 1.00000000 1.0
37.00000000 1.00000000 1.0
38.00000000 1.00000000 1.0
39.00000000 1.00000000 1.0
0.00000000 2.00000000 1.0
1.00000000 2.00000000 1.0
2.00000000 2.00000000 1.0
3.00000000 2.00000000 1.0
4.00000000 2.00000000 1.0
5.00000000 2.00000000 1.0
6.00000000 2.00000000 1.0
7.00000000 2.00000000 1.0
8.00000000 2.00000000 1.0
9.00000000 2.00000000 1.0
10.00000000 2.00000000 1.0
11.00000000 2.00000000 1.0
12.00000000 2.00000000 1.0
13.00000000 2.00000000 1.0
14.00000000 2.00000000 1.0
15.00000000 2.00000000 1.0
16.00000000 2.00000000 1.0
17.00000000 2.00000000 1.0
18.00000000 2.00000000 1.0
19.00000000 2.00000000 1.0
20.00000000 2.00000000 1.0
21.00000000 2.00000000 1.0
22.00000000 2.00000000 1.0
23.00000000 2.00000000 1.0
24.00000000 2.00000000 1.0
25.00000000 2.00000000 1.0
26.00000000 2.00000000 1.0
27.00000000 2.00000000 1.0
28.00000000 2.00000000 1.0
29.00000000 2.00000000 1.0
30.00000000 2.00000000 1.0
31.00000000 2.00000000 1.0
32.00000000 2.00000000 1.0
33.00000000 2.00000000 1.0
34.00000000 2.00000000 1.0
35.00000000 2.00000000 1.0
36.00000000 2.00000000 1.0
37.00000000 2.00000000 1.0
38.00000000 2.00000000 1.0
39.00000000 2.00000000 1.0
0.00000000 3.00000000 1.0
1.00000000 3.00000000 1.0
2.00000000 3.00000000 1.0
3.00000000 3.00000000 1.0
4.00000000 3.00000000 1.0
5.00000000 3.00000000 1.0
6.00000000 3.00000000 1.0
7.00000000 3.00000000 1.0
8.00000000 3.00000000 1.0
9.00000000 3.00000000 1.0
10.00000000 3.00000000 1.0
11.00000000 3.00000000 1.0
12.00000000 3.00000000 1.0
13.00000000 3.00000000 1.0
14.00000000 3.00000000 1.0
15.00000000 3.00000000 1.0
16.00000000 3.00000000 1.0
17.00000000 3.00000000 1.0
18.00000000 3.00000000 1.0
19.00000000 3.00000000 1.0
20.00000000 3.00000000 1.0
21.00000000 3.00000000 1.0
22.00000000 3.00000000 1.0
23.00000000 3.00000000 1.0
24.00000000 3.00000000 1.0
25.00000000 3.00000000 1.0
26.00000000 3.00000000 1.0
27.00000000 3.00000000 1.0
28.00000000 3.00000000 1.0
29.00000000 3.00000000 1.0
30.00000000 3.00000000 1.0
31.00000000 3.00000000 1.0
32.00000000 3.00000000 1.0
33.00000000 3.00000000 1.0
34.00000000 3.00000000 1.0
35.00000000 3.00000000 1.0
36.00000000 3.00000000 1.0
37.00000000 3.00000000 1.0
38.00000000 3.00000000 1.0
39.00000000 3.00000000 1.0
0.00000000 4.00000000 1.0
1.00000000 4.00000000 1.0
2.00000000 4.00000000 1.0
3.00000000 4.00000000 1.0
4.00000000 4.00000000 1.0
5.00000000 4.00000000 1.0
6.00000000 4.00000000 1.0
7.00000000 4.00000000 1.0
8.00000000 4.00000000 1.0
9.00000000 4.00000000 1.0
10.00000000 4.00000000 1.0
11.00000000 4.00000000 1.0
12.00000000 4.00000000 1.0
13.00000000 4.00000000 1.0
14.00000000 4.00000000 1.0
15.00000000 4.00000000 1.0
16.00000000 4.00000000 1.0
17.00000000 4.00000000 1.0
18.00000000 4.00000000 1.0
19.00000000 4.00000000 1.0
20.00000000 4.00000000 1.0
21.00000000 4.00000000 1.0
22.00000000 4.00000000 1.0
23.00000000 4.00000000 1.0
24.00000000 4.00000000 1.0
25.00000000 4.00000000 1.0
26.00000000 4.00000000 1.0
27.00000000 4.00000000 1.0
28.00000000 4.00000000 1.0
29.00000000 4.00000000 1.0
30.00000000 4.00000000 1.0
31.00000000 4.00000000 1.0
32.00000000 4.00000000 1.0
33.00000000 4.00000000 1.0
34.00000000 4.00000000 1.0
35.00000000 4.00000000 1.0
36.00000000 4.00000000 1.0
37.00000000 4.00000000 1.0
38.00000000 4.00000000 1.0
39.00000000 4.00000000 1.0
0.00000000 5.00000000 1.0
1.00000000 5.00000000 1.0
2.00000000 5.00000000 1.0
3.00000000 5.00000000 1.0
4.00000000 5.00000000 1.0
5.00000000 5.00000000 1.0
6.00000000 5.00000000 1.0
7.00000000 5.00000000 1.0
8.00000000 5.00000000 1.0
9.00000000 5.00000000 1.0
10.00000000 5.00000000 1.0
11.00000000 5.00000000 1.0
12.00000000 5.00000000 1.0
13.00000000 5.00000000 1.0
14.00000000 5.00000000 1.0
15.00000000 5.00000000 1.0
16.00000000 5.00000000 1.0
17.00000000 5.00000000 1.0
18.00000000 5.00000000 1.0
19.00000000 5.00000000 1.0
20.00000000 5.00000000 1.0
21.00000000 5.00000000 1.0
22.00000000 5.00000000 1.0
23.00000000 5.00000000 1.0
24.00000000 5.00000000 1.0
25.00000000 5.00000000 1.0
26.00000000 5.00000000 1.0
27.00000000 5.00000000 1.0
28.00000000 5.00000000 1.0
29.00000000 5.00000000 1.0
30.00000000 5.00000000 1.0
31.00000000 5.00000000 1.0
32.00000000 5.00000000 1.0
33.00000000 5.00000000 1.0
34.00000000 5.00000000 1.0
35.00000000 5.00000000 1.0
36.00000000 5.00000000 1.0
37.00000000 5.00000000 1.0
38.00000000 5.00000000 1.0
39.00000000 5.00000000 1.0
0.00000000 6.00000000 1.0
1.00000000 6.00000000 1.0
2.00000000 6.00000000 1.0
3.00000000 6.00000000 1.0
4.00000000 6.00000000 1.0
5.00000000 6.00000000 1.0
6.00000000 6.00000000 1.0
7.00000000 6.00000000 1.0
8.00000000 6.00000000 1.0
9.00000000 6.00000000 1.0
10.00000000 6.00000000 1.0
11.00000000 6.00000000 1.0
12.00000000 6.00000000 1.0
13.00000000 6.00000000 1.0
14.00000000 6.00000000 1.0
15.00000000 6.00000000 1.0
16.00000000 6.00000000 1.0
17.00000000 6.00000000 1.0
18.00000000 6.00000000 1.0
19.00000000 6.00000000 1.0
20.00000000 6.00000000 1.0
21.00000000 6.00000000 1.0
22.00000000 6.00000000 1.0
23.00000000 6.00000000 1.0
24.00000000 6.00000000 1.0
25.00000000 6.00000000 1.0
26.00000000 6.00000000 1.0
27.00000000 6.00000000 1.0
28.00000000 6.00000000 1.0
29.00000000 6.00000000 1.0
30.00000000 6.00000000 1.0
31.00000000 6.00000000 1.0
32.00000000 6.00000000 1.0
33.00000000 6.00000000 1.0
34.00000000 6.00000000 1.0
35.00000000 6.00000000 1.0
36.00000000 6.00000000 1.0
37.00000000 6.00000000 1.0
38.00000000 6.00000000 1.0
39.00000000 6.00000000 1.0
0.00000000 7.00000000 1.0
1.00000000 7.00000000 1.0
2.00000000 7.00000000 1.0
3.00000000 7.00000000 1.0
4.00000000 7.00000000 1.0
5.00000000 7.00000000 1.0
6.00000000 7.00000000 1.0
7.00000000 7.00000000 1.0
8.00000000 7.00000000 1.0
9.00000000 7.00000000 1.0
10.00000000 7.00000000 1.0
11.00000000 7.00000000 1.0
12.00000000 7.00000000 1.0
13.00000000 7.00000000 1.0
14.00000000 7.00000000 1.0
15.00000000 7.00000000 1.0
16.00000000 7.00000000 1.0
17.00000000 7.00000000 1.0
18.00000000 7.00000000 1.0
19.00000000 7.00000000 1.0
20.00000000 7.00000000 1.0
21.00000000 7.00000000 1.0
22.00000000 7.00000000 1.0
23.00000000 7.00000000 1.0
24.00000000 7.00000000 1.0
25.00000000 7.00000000 1.0
26.00000000 7.00000000 1.0
27.00000000 7.00000000 1.0
28.00000000 7.00000000 1.0
29.00000000 7.00000000 1.0
30.00000000 7.00000000 1.0
31.00000000 7.00000000 1.0
32.00000000 7.00000000 1.0
33.00000000 7.00000000 1.0
34.00000000 7.00000000 1.0
35.00000000 7.00000000 1.0
36.00000000 7.00000000 1.0
37.00000000 7.00000000 1.0
38.00000000 7.00000000 1.0
39.00000000 7.00000000 1.0
0.00000000 8.00000000 1.0
1.00000000 8.00000000 1.0
2.00000000 8.00000000 1.0
3.00000000 8.00000000 1.0
4.00000000 8.00000000 1.0
5.00000000 8.00000000 1.0
6.00000000 8.00000000 1.0
7.00000000 8.00000000 1.0
8.00000000 8.00000000 1.0
9.00000000 8.00000000 1.0
10.00000000 8.00000000 1.0
11.00000000 8.00000000 1.0
12.00000000 8.00000000 1.0
13.00000000 8.00000000 1.0
14.00000000 8.00000000 1.0
15.00000000 8.00000000 1.0
16.00000000 8.00000000 1.0
17.00000000 8.00000000 1.0
18.00000000 8.00000000 1.0
19.00000000 8.00000000 1.0
20.00000000 8.00000000 1.0
21.00000000 8.00000000 1.0
22.00000000 8.00000000 1.0
23.00000000 8.00000000 1.0
24.00000000 8.00000000 1.0
25.00000000 8.00000000 1.0
26.00000000 8.00000000 1.0
27.00000000 8.00000000 1.0
28.00000000 8.00000000 1.0
29.00000000 8.00000000 1.0
30.00000000 8.00000000 1.0
31.00000000 8.00000000 1.0
32.00000000 8.00000000 1.0
33.00000000 8.00000000 1.0
34.00000000 8.00000000 1.0
35.00000000 8.00000000 1.0
36.00000000 8.00000000 1.0
37.00000000 8.00000000 1.0
38.00000000 8.00000000 1.0
39.00000000 8.00000000 1.0
0.00000000 9.00000000 1.0
1.00000000 9.00000000 1.0
2.00000000 9.00000000 1.0
3.00000000 9.00000000 1.0
4.00000000 9.00000000 1.0
5.00000000 9.00000000 1.0
6.00000000 9.00000000 1.0
7.00000000 9.00000000 1.0
8.00000000 9.00000000 1.0
[...]
POINT_DATA 1600
VECTORS velocity double
0.00000000 0.00002755 0.0
0.00000026 -0.00002767 0.0
0.00000048 -0.00000657 0.0
0.00000062 0.00005280 0.0
0.00000066 0.00012347 0.0
0.00000062 0.00019176 0.0
0.00000052 0.00025137 0.0
0.00000037 0.00029961 0.0
0.00000019 0.00033553 0.0
-0.00000001 0.00035905 0.0
-0.00000021 0.00037058 0.0
-0.00000042 0.00037081 0.0
-0.00000062 0.00036058 0.0
-0.00000081 0.00034089 0.0
-0.00000098 0.00031277 0.0
-0.00000114 0.00027730 0.0
-0.00000127 0.00023561 0.0
-0.00000137 0.00018882 0.0
-0.00000144 0.00013805 0.0
-0.00000149 0.00008443 0.0
-0.00000150 0.00002909 0.0
-0.00000149 -0.00002686 0.0
-0.00000144 -0.00008229 0.0
-0.00000137 -0.00013606 0.0
-0.00000127 -0.00018703 0.0
-0.00000114 -0.00023406 0.0
-0.00000099 -0.00027600 0.0
-0.00000081 -0.00031170 0.0
-0.00000062 -0.00034000 0.0
-0.00000042 -0.00035981 0.0
-0.00000021 -0.00037006 0.0
-0.00000001 -0.00036977 0.0
0.00000019 -0.00035808 0.0
0.00000037 -0.00033432 0.0
0.00000052 -0.00029811 0.0
0.00000062 -0.00024957 0.0
0.00000066 -0.00018968 0.0
0.00000062 -0.00012119 0.0
0.00000048 -0.00005043 0.0
0.00000025 0.00000882 0.0
0.00000000 0.00008418 0.0
0.00009984 -0.00008474 0.0
0.00007076 0.00003735 0.0
-0.00015581 0.00029518 0.0
-0.00061059 0.00059530 0.0
-0.00128769 0.00088723 0.0
-0.00216167 0.00114496 0.0
-0.00319715 0.00135575 0.0
-0.00435429 0.00151406 0.0
-0.00559195 0.00161850 0.0
-0.00686965 0.00167005 0.0
-0.00814876 0.00167126 0.0
-0.00939329 0.00162562 0.0
-0.01057043 0.00153728 0.0
-0.01165085 0.00141081 0.0
-0.01260894 0.00125106 0.0
-0.01342293 0.00106299 0.0
-0.01407495 0.00085169 0.0
-0.01455105 0.00062227 0.0
-0.01484124 0.00037986 0.0
-0.01493946 0.00012957 0.0
-0.01484360 -0.00012346 0.0
-0.01455553 -0.00037409 0.0
-0.01408105 -0.00061715 0.0
-0.01343000 -0.00084744 0.0
-0.01261620 -0.00105976 0.0
-0.01165750 -0.00124887 0.0
-0.01057574 -0.00140960 0.0
-0.00939668 -0.00153684 0.0
-0.00814985 -0.00162566 0.0
-0.00686836 -0.00167142 0.0
-0.00558849 -0.00166994 0.0
-0.00434915 -0.00161772 0.0
-0.00319108 -0.00151231 0.0
-0.00215556 -0.00135280 0.0
-0.00128247 -0.00114078 0.0
-0.00060707 -0.00088195 0.0
-0.00015455 -0.00058926 0.0
0.00006968 -0.00028896 0.0
0.00009699 -0.00003184 0.0
0.00000000 0.00008505 0.0
0.00002868 -0.00008610 0.0
-0.00020542 0.00027146 0.0
-0.00078557 0.00087533 0.0
-0.00174838 0.00155811 0.0
-0.00308338 0.00222223 0.0
-0.00475064 0.00281223 0.0
-0.00669282 0.00329792 0.0
-0.00884327 0.00366452 0.0
-0.01113150 0.00390673 0.0
-0.01348683 0.00402538 0.0
-0.01584085 0.00402528 0.0
-0.01812917 0.00391394 0.0
-0.02029260 0.00370070 0.0
-0.02227788 0.00339610 0.0
-0.02403830 0.00301147 0.0
-0.02553396 0.00255865 0.0
-0.02673204 0.00204977 0.0
-0.02760688 0.00149711 0.0
-0.02814004 0.00091302 0.0
-0.02832037 0.00030990 0.0
-0.02814400 -0.00029983 0.0
-0.02761437 -0.00090371 0.0
-0.02674228 -0.00148924 0.0
-0.02554584 -0.00204388 0.0
-0.02405055 -0.00255505 0.0
-0.02228918 -0.00301025 0.0
-0.02030172 -0.00339706 0.0
-0.01813514 -0.00370342 0.0
-0.01584304 -0.00391775 0.0
-0.01348509 -0.00402937 0.0
-0.01112616 -0.00402887 0.0
-0.00883510 -0.00390878 0.0
-0.00668299 -0.00366441 0.0
-0.00474058 -0.00329522 0.0
-0.00307454 -0.00280682 0.0
-0.00174204 -0.00221446 0.0
-0.00078250 -0.00154879 0.0
-0.00020565 -0.00086580 0.0
0.00002613 -0.00026363 0.0
0.00000000 -0.00004068 0.0
-0.00010024 0.00003937 0.0
-0.00062647 0.00079769 0.0
-0.00163364 0.00188250 0.0
-0.00314380 0.00306827 0.0
-0.00513486 0.00421330 0.0
-0.00755340 0.00523077 0.0
-0.01032530 0.00606983 0.0
-0.01336415 0.00670337 0.0
-0.01657759 0.00712016 0.0
-0.01987200 0.00731979 0.0
-0.02315598 0.00730925 0.0
-0.02634279 0.00710076 0.0
-0.02935219 0.00671010 0.0
-0.03211167 0.00615557 0.0
-0.03455731 0.00545712 0.0
-0.03663442 0.00463576 0.0
-0.03829786 0.00371321 0.0
-0.03951228 0.00271153 0.0
-0.04025228 0.00165302 0.0
-0.04050247 0.00056009 0.0
-0.04025754 -0.00054477 0.0
-0.03952225 -0.00163899 0.0
-0.03831152 -0.00269997 0.0
-0.03665036 -0.00370503 0.0
-0.03457388 -0.00463154 0.0
-0.03212714 -0.00545698 0.0
-0.02936499 -0.00615922 0.0
-0.02635161 -0.00671680 0.0
-0.02315998 -0.00710938 0.0
-0.01987091 -0.00731844 0.0
-0.01657175 -0.00732804 0.0
-0.01335450 -0.00712603 0.0
-0.01031326 -0.00670565 0.0
-0.00754072 -0.00606776 0.0
-0.00512336 -0.00522418 0.0
-0.00313506 -0.00420276 0.0
-0.00162868 -0.00305517 0.0
-0.00062542 -0.00186906 0.0
-0.00010216 -0.00078689 0.0
0.00000000 -0.00030492 0.0
-0.00024155 0.00030352 0.0
-0.00109252 0.00164866 0.0
-0.00256120 0.00335117 0.0
-0.00464084 0.00514790 0.0
-0.00728965 0.00686211 0.0
-0.01043765 0.00837877 0.0
-0.01399450 0.00962668 0.0
-0.01785682 0.01056568 0.0
-0.02191441 0.01117775 0.0
-0.02605532 0.01146070 0.0
-0.03016978 0.01142372 0.0
-0.03415323 0.01108421 0.0
-0.03790856 0.01046544 0.0
-0.04134775 0.00959476 0.0
-0.04439303 0.00850240 0.0
-0.04697768 0.00722042 0.0
-0.04904659 0.00578211 0.0
-0.05055653 0.00422147 0.0
-0.05147644 0.00257292 0.0
-0.05178747 0.00087112 0.0
-0.05148311 -0.00084912 0.0
-0.05056923 -0.00255287 0.0
-0.04906408 -0.00420513 0.0
-0.04699826 -0.00577085 0.0
-0.04441471 -0.00721510 0.0
-0.04136844 -0.00850325 0.0
-0.03792629 -0.00960136 0.0
-0.03416638 -0.01047671 0.0
-0.03017724 -0.01109853 0.0
-0.02605663 -0.01143905 0.0
-0.02190984 -0.01147482 0.0
-0.01784734 -0.01118852 0.0
-0.01398170 -0.01057129 0.0
-0.01042351 -0.00962595 0.0
-0.00727629 -0.00837140 0.0
-0.00463017 -0.00684888 0.0
-0.00255454 -0.00513079 0.0
-0.00109028 -0.00333332 0.0
-0.00024295 -0.00163423 0.0
0.00000000 -0.00070386 0.0
-0.00037916 0.00070250 0.0
-0.00155966 0.00282916 0.0
-0.00350017 0.00529168 0.0
-0.00615794 0.00780567 0.0
-0.00946518 0.01016935 0.0
-0.01333139 0.01224497 0.0
-0.01764835 0.01394365 0.0
-0.02229600 0.01521332 0.0
-0.02714789 0.01602965 0.0
-0.03207619 0.01638900 0.0
-0.03695571 0.01630323 0.0
-0.04166712 0.01579563 0.0
-0.04609954 0.01489786 0.0
-0.05015236 0.01364757 0.0
-0.05373659 0.01208663 0.0
-0.05677587 0.01025970 0.0
-0.05920705 0.00821329 0.0
-0.06098060 0.00599502 0.0
-0.06206090 0.00365322 0.0
-0.06242634 0.00123656 0.0
-0.06206946 -0.00120600 0.0
-0.06099696 -0.00362537 0.0
-0.05922975 -0.00597234 0.0
-0.05680288 -0.00819771 0.0
-0.05376553 -0.01025245 0.0
-0.05018070 -0.01208808 0.0
-0.04612487 -0.01365719 0.0
-0.04168738 -0.01491420 0.0
-0.03696941 -0.01581650 0.0
-0.03208260 -0.01632586 0.0
-0.02714708 -0.01641034 0.0
-0.02228889 -0.01604672 0.0
-0.01763661 -0.01522357 0.0
-0.01331718 -0.01394537 0.0
-0.00945095 -0.01223763 0.0
-0.00614597 -0.01015386 0.0
-0.00349220 -0.00778457 0.0
-0.00155646 -0.00526906 0.0
-0.00038016 -0.00281053 0.0
0.00000000 -0.00122970 0.0
-0.00050887 0.00122848 0.0
-0.00201229 0.00433258 0.0
-0.00442291 0.00770230 0.0
-0.00765976 0.01104252 0.0
-0.01162515 0.01413475 0.0
-0.01620458 0.01682440 0.0
-0.02126966 0.01900872 0.0
-0.02668254 0.02062620 0.0
-0.03230067 0.02164778 0.0
-0.03798129 0.02206962 0.0
-0.04358535 0.02190729 0.0
-0.04898075 0.02119103 0.0
-0.05404497 0.01996207 0.0
-0.05866697 0.01826957 0.0
-0.06274865 0.01616831 0.0
-0.06620587 0.01371692 0.0
-0.06896909 0.01097651 0.0
-0.07098380 0.00800974 0.0
-0.07221080 0.00488021 0.0
-0.07262630 0.00165206 0.0
-0.07222206 -0.00161024 0.0
-0.07100541 -0.00484202 0.0
-0.06899929 -0.00797846 0.0
-0.06624224 -0.01095476 0.0
-0.06278831 -0.01370639 0.0
-0.05870682 -0.01616957 0.0
-0.05408200 -0.01828200 0.0
-0.04901231 -0.01998388 0.0
-0.04360942 -0.02121940 0.0
-0.03799667 -0.02193860 0.0
-0.03230713 -0.02209988 0.0
-0.02668083 -0.02167302 0.0
-0.02126145 -0.02064296 0.0
-0.01619223 -0.01901459 0.0
-0.01161142 -0.01681844 0.0
-0.00764739 -0.01411789 0.0
-0.00441417 -0.01101779 0.0
-0.00200840 -0.00767482 0.0
-0.00050957 -0.00430936 0.0
0.00000000 -0.00187520 0.0
-0.00063103 0.00187418 0.0
-0.00244839 0.00614994 0.0
-0.00532373 0.01057764 0.0
-0.00913819 0.01485698 0.0
-0.01376224 0.01875880 0.0
-0.01905473 0.02211690 0.0
-0.02486480 0.02481879 0.0
-0.03103527 0.02679667 0.0
-0.03740673 0.02801924 0.0
-0.04382153 0.02848442 0.0
-0.05012744 0.02821319 0.0
-0.05618071 0.02724431 0.0
-0.06184860 0.02562996 0.0
-0.06701124 0.02343221 0.0
-0.07156302 0.02072009 0.0
-0.07541354 0.01756745 0.0
-0.07848825 0.01405122 0.0
-0.08072878 0.01025026 0.0
-0.08209315 0.00624458 0.0
-0.08255591 0.00211483 0.0
-0.08210821 -0.00205795 0.0
-0.08075780 -0.00619243 0.0
-0.07852913 -0.01020713 0.0
-0.07546332 -0.01402057 0.0
-0.07161814 -0.01755157 0.0
-0.06706786 -0.02071985 0.0
-0.06190290 -0.02344696 0.0
-0.05622924 -0.02565754 0.0
-0.05016742 -0.02728122 0.0
-0.04385113 -0.02825490 0.0
-0.03742520 -0.02852581 0.0
-0.03104308 -0.02805514 0.0
-0.02486352 -0.02682252 0.0
-0.01904688 -0.02483123 0.0
-0.01375093 -0.02211439 0.0
-0.00912671 -0.01874212 0.0
-0.00531496 -0.01482954 0.0
-0.00244418 -0.01054561 0.0
-0.00063154 -0.00612199 0.0
0.00000000 -0.00263524 0.0
-0.00074767 0.00263448 0.0
-0.00287208 0.00827435 0.0
-0.00620811 0.01391367 0.0
-0.01060022 0.01924908 0.0
-0.01588610 0.02404467 0.0
-0.02189608 0.02812688 0.0
-0.02845476 0.03137747 0.0
-0.03538399 0.03372589 0.0
-0.04250635 0.03514160 0.0
-0.04964885 0.03562692 0.0
-0.05664616 0.03521051 0.0
-0.06334348 0.03394163 0.0
-0.06959879 0.03188528 0.0
-0.07528456 0.02911797 0.0
-0.08028893 0.02572446 0.0
-0.08451653 0.02179505 0.0
-0.08788893 0.01742361 0.0
-0.09034486 0.01270620 0.0
-0.09184036 0.00774008 0.0
-0.09234873 0.00262320 0.0
-0.09186063 -0.00254605 0.0
-0.09038407 -0.00766899 0.0
-0.08794448 -0.01264673 0.0
-0.08458479 -0.01738026 0.0
-0.08036549 -0.02177086 0.0
-0.07536460 -0.02572075 0.0
-0.06967744 -0.02913412 0.0
-0.06341620 -0.03191878 0.0
-0.05670916 -0.03398826 0.0
-0.04969938 -0.03526467 0.0
-0.04254297 -0.03568222 0.0
-0.03540667 -0.03519145 0.0
-0.02846489 -0.03376431 0.0
-0.02189624 -0.03139987 0.0
-0.01587981 -0.02813083 0.0
-0.01059136 -0.02403056 0.0
-0.00620033 -0.01922057 0.0
-0.00286801 -0.01387793 0.0
-0.00074811 -0.00824188 0.0
0.00000000 -0.00350726 0.0
-0.00086123 0.00350681 0.0
-0.00328991 0.01070303 0.0
-0.00708671 0.01771048 0.0
-0.01206044 0.02422280 0.0
-0.01801540 0.02999964 0.0
-0.02475194 0.03486342 0.0
-0.03206834 0.03869388 0.0
-0.03976380 0.04142135 0.0
-0.04764171 0.04301952 0.0
-0.05551300 0.04349821 0.0
-0.06319908 0.04289658 0.0
-0.07053437 0.04127693 0.0
-0.07736827 0.03871917 0.0
-0.08356649 0.03531619 0.0
-0.08901203 0.03117000 0.0
-0.09360565 0.02638867 0.0
-0.09726610 0.02108406 0.0
-0.09993012 0.01537023 0.0
-0.10155241 0.00936236 0.0
-0.10210546 0.00317626 0.0
-0.10157957 -0.00307194 0.0
-0.09998280 -0.00926576 0.0
-0.09734112 -0.01528842 0.0
-0.09369852 -0.02102286 0.0
-0.08911726 -0.02635211 0.0
-0.08367801 -0.03116000 0.0
-0.07747985 -0.03533229 0.0
-0.07064009 -0.03875853 0.0
-0.06329381 -0.04133455 0.0
-0.05559279 -0.04296569 0.0
-0.04770413 -0.04357088 0.0
-0.03980811 -0.04308747 0.0
-0.03209556 -0.04147686 0.0
-0.02476467 -0.03873075 0.0
-0.01801752 -0.03487798 0.0
-0.01205651 -0.02999157 0.0
-0.00708128 -0.02419580 0.0
-0.00328661 -0.01767260 0.0
-0.00086178 -0.01066671 0.0
0.00000000 -0.00449125 0.0
-0.00097415 0.00449114 0.0
-0.00370908 0.01343795 0.0
-0.00797208 0.02197348 0.0
-0.01353656 0.02978728 0.0
-0.02017272 0.03663580 0.0
-0.02764947 0.04234016 0.0
-0.03573714 0.04678154 0.0
-0.04421071 0.04989493 0.0
-0.05285317 0.05166198 0.0
-0.06145861 0.05210365 0.0
-0.06983494 0.05127291 0.0
-0.07780602 0.04924801 0.0
-0.08521322 0.04612637 0.0
-0.09191641 0.04201938 0.0
-0.09779445 0.03704804 0.0
-0.10274532 0.03133954 0.0
-0.10668599 0.02502473 0.0
-0.10955211 0.01823635 0.0
-0.11129770 0.01110796 0.0
-0.11189488 0.00377344 0.0
-0.11133368 -0.00363313 0.0
-0.10962206 -0.01097738 0.0
-0.10678601 -0.01812446 0.0
-0.10286988 -0.02493899 0.0
-0.09793674 -0.03128526 0.0
-0.09206881 -0.03702793 0.0
-0.08536781 -0.04203329 0.0
-0.07795515 -0.04617120 0.0
-0.06997176 -0.04931793 0.0
-0.06157762 -0.05135983 0.0
-0.05295061 -0.05219789 0.0
-0.04428487 -0.05175321 0.0
-0.03578845 -0.04997328 0.0
-0.02768042 -0.04683878 0.0
-0.02018750 -0.04237089 0.0
-0.01354049 -0.03663859 0.0
-0.00797076 -0.02976552 0.0
-0.00370738 -0.02193598 0.0
-0.00097503 -0.01339906 0.0
0.00000000 -0.00558949 0.0
-0.00108867 0.00558978 0.0
-0.00413663 0.01648592 0.0
-0.00887692 0.02671377 0.0
-0.01504687 0.03595723 0.0
-0.02238132 0.04397025 0.0
-0.03061613 0.05057498 0.0
-0.03949202 0.05565742 0.0
-0.04875825 0.05916116 0.0
-0.05817624 0.06107997 0.0
-0.06752259 0.06145000 0.0
-0.07659151 0.06034183 0.0
-0.08519661 0.05785310 0.0
-0.09317193 0.05410169 0.0
-0.10037243 0.04921988 0.0
-0.10667398 0.04334959 0.0
-0.11197296 0.03663852 0.0
-0.11618565 0.02923743 0.0
-0.11924758 0.02129828 0.0
-0.12111285 0.01297322 0.0
-0.12175361 0.00441420 0.0
-0.12115980 -0.00422694 0.0
-0.11933905 -0.01279814 0.0
-0.11631687 -0.02114664 0.0
-0.11213716 -0.02911870 0.0
-0.10686278 -0.03655964 0.0
-0.10057635 -0.04331436 0.0
-0.09338101 -0.04922862 0.0
-0.08540107 -0.05415114 0.0
-0.07678240 -0.05793661 0.0
-0.06769242 -0.06044981 0.0
-0.05831956 -0.06157075 0.0
-0.04887201 -0.06120076 0.0
-0.03957581 -0.05926948 0.0
-0.03067214 -0.05574245 0.0
-0.02241397 -0.05062906 0.0
-0.01506227 -0.04399029 0.0
-0.00888190 -0.03594589 0.0
-0.00413758 -0.02668030 0.0
-0.00109016 -0.01644648 0.0
0.00000000 -0.00680637 0.0
-0.00120678 0.00680710 0.0
-0.00457909 0.01985822 0.0
-0.00981326 0.03194794 0.0
-0.01660879 0.04275276 0.0
-0.02466323 0.05202469 0.0
-0.03367745 0.05958920 0.0
-0.04336067 0.06534064 0.0
-0.05343496 0.06923544 0.0
-0.06363911 0.07128412 0.0
-0.07373172 0.07154261 0.0
-0.08349337 0.07010348 0.0
-0.09272789 0.06708763 0.0
-0.10126293 0.06263673 0.0
-0.10894977 0.05690672 0.0
-0.11566261 0.05006243 0.0
-0.12129761 0.04227352 0.0
-0.12577169 0.03371150 0.0
-0.12902132 0.02454791 0.0
-0.13100151 0.01495342 0.0
-0.13168501 0.00509770 0.0
-0.13106176 -0.00485019 0.0
-0.12913886 -0.01472104 0.0
-0.12594080 -0.02434470 0.0
-0.12151010 -0.03354941 0.0
-0.11590825 -0.04216148 0.0
-0.10921692 -0.05000568 0.0
-0.10153924 -0.05690631 0.0
-0.09300101 -0.06268937 0.0
-0.08375179 -0.06718582 0.0
-0.07396556 -0.07023605 0.0
-0.06384074 -0.07169557 0.0
-0.05359961 -0.07144189 0.0
-0.04348674 -0.06938234 0.0
-0.03376656 -0.06546263 0.0
-0.02471995 -0.05967567 0.0
-0.01664001 -0.05207022 0.0
-0.00982720 -0.04275871 0.0
-0.00458397 -0.03192353 0.0
-0.00120926 -0.01982119 0.0
0.00000000 -0.00814812 0.0
-0.00133025 0.00814934 0.0
-0.00504235 0.02357032 0.0
-0.01079205 0.03769764 0.0
-0.01823816 0.05019887 0.0
-0.02703820 0.06082472 0.0
-0.03685556 0.06940657 0.0
-0.04736589 0.07585098 0.0
-0.05826249 0.08013204 0.0
-0.06926063 0.08228226 0.0
-0.08010062 0.08238260 0.0
-0.09054973 0.08055259 0.0
-0.10040296 0.07694086 0.0
-0.10948286 0.07171663 0.0
-0.11763857 0.06506243 0.0
-0.12474437 0.05716823 0.0
-0.13069787 0.04822702 0.0
-0.13541816 0.03843179 0.0
-0.13884401 0.02797376 0.0
-0.14093233 0.01704174 0.0
-0.14165703 0.00582239 0.0
-0.14100828 -0.00549893 0.0
-0.13899242 -0.01673691 0.0
-0.13563220 -0.02770492 0.0
-0.13096774 -0.03821387 0.0
-0.12505780 -0.04807143 0.0
-0.11798147 -0.05708201 0.0
-0.10984008 -0.06504769 0.0
-0.10075921 -0.07177024 0.0
-0.09089047 -0.07705456 0.0
-0.08041303 -0.08071349 0.0
-0.06953446 -0.08257414 0.0
-0.05849076 -0.08248559 0.0
-0.04754539 -0.08032771 0.0
-0.03698705 -0.07602098 0.0
-0.02712618 -0.06953654 0.0
-0.01829030 -0.06090611 0.0
-0.01081810 -0.05023090 0.0
-0.00505270 -0.03768893 0.0
-0.00133415 -0.02353974 0.0
0.00000000 -0.00962265 0.0
-0.00146065 0.00962443 0.0
-0.00553172 0.02764139 0.0
-0.01182313 0.04398905 0.0
-0.01994896 0.05832470 0.0
-0.02952309 0.07039886 0.0
-0.04016835 0.08005183 0.0
-0.05152439 0.08720701 0.0
-0.06325412 0.09186177 0.0
-0.07504850 0.09407664 0.0
-0.08662963 0.09396372 0.0
-0.09775226 0.09167522 0.0
-0.10820394 0.08739253 0.0
-0.11780392 0.08131661 0.0
-0.12640132 0.07365983 0.0
-0.13387266 0.06463956 0.0
-0.14011912 0.05447348 0.0
-0.14506387 0.04337654 0.0
-0.14864954 0.03155944 0.0
-0.15083615 0.01922835 0.0
-0.15159949 0.00658573 0.0
-0.15093022 -0.00616820 0.0
-0.14883359 -0.01883353 0.0
-0.14532990 -0.03120861 0.0
-0.14045560 -0.04308816 0.0
-0.13426507 -0.05426196 0.0
-0.12683284 -0.06451424 0.0
-0.11825631 -0.07362422 0.0
-0.10865854 -0.08136802 0.0
-0.09819105 -0.08752204 0.0
-0.08703633 -0.09186820 0.0
-0.07540967 -0.09420081 0.0
-0.06356004 -0.09433522 0.0
-0.05176976 -0.09211799 0.0
-0.04035266 -0.08743808 0.0
-0.02965053 -0.08023866 0.0
-0.02002788 -0.07052876 0.0
-0.01186494 -0.05839384 0.0
-0.00554934 -0.04400453 0.0
-0.00146647 -0.02762261 0.0
0.00000000 -0.01123941 0.0
-0.00159939 0.01124181 0.0
-0.00605204 0.03209404 0.0
-0.01291530 0.05085230 0.0
-0.02175333 0.06716272 0.0
-0.03213174 0.08077727 0.0
-0.04362898 0.09154907 0.0
-0.05584595 0.09942397 0.0
-0.06841348 0.10442931 0.0
-0.08099768 0.10666083 0.0
-0.09330288 0.10626893 0.0
-0.10507270 0.10344504 0.0
-0.11608924 0.09840907 0.0
-0.12617099 0.09139836 0.0
-0.13516975 0.08265859 0.0
-0.14296705 0.07243685 0.0
-0.14947025 0.06097669 0.0
-0.15460894 0.04851523 0.0
-0.15833153 0.03528203 0.0
-0.16060254 0.02149936 0.0
-0.16140056 0.00738375 0.0
-0.16071700 -0.00685177 0.0
-0.15855574 -0.02099479 0.0
-0.15493370 -0.03483065 0.0
-0.14988222 -0.04813964 0.0
-0.14344932 -0.06069486 0.0
-0.13570260 -0.07226095 0.0
-0.12673280 -0.08259402 0.0
-0.11665763 -0.09144319 0.0
-0.10562571 -0.09855396 0.0
-0.09382028 -0.10367364 0.0
-0.08146222 -0.10655886 0.0
-0.06881211 -0.10698533 0.0
-0.05617071 -0.10475939 0.0
-0.04387761 -0.09973118 0.0
-0.03230776 -0.09180851 0.0
-0.02186563 -0.08097090 0.0
-0.01297704 -0.06728243 0.0
-0.00607899 -0.05090257 0.0
-0.00160774 -0.03209385 0.0
0.00000000 -0.01300932 0.0
-0.00174783 0.01301243 0.0
-0.00660784 0.03695405 0.0
-0.01407659 0.05832106 0.0
-0.02366176 0.07674789 0.0
-0.03487494 0.09199045 0.0
-0.04724563 0.10391976 0.0
-0.06033278 0.11251112 0.0
-0.07373349 0.11783002 0.0
-0.08708873 0.12001608 0.0
-0.10008615 0.11926635 0.0
-0.11246030 0.11581919 0.0
-0.12399068 0.10993946 0.0
-0.13449835 0.10190602 0.0
-0.14384131 0.09200156 0.0
-0.15190954 0.08050508 0.0
-0.15861981 0.06768697 0.0
-0.16391092 0.05380634 0.0
-0.16773936 0.03911046 0.0
-0.17007584 0.02383584 0.0
-0.17090276 0.00821067 0.0
-0.17021263 -0.00754189 0.0
-0.16800766 -0.02319977 0.0
-0.16430032 -0.03853798 0.0
-0.15911517 -0.05332479 0.0
-0.15249154 -0.06731850 0.0
-0.14448723 -0.08026526 0.0
-0.13518304 -0.09189821 0.0
-0.12468775 -0.10193848 0.0
-0.11314345 -0.11009826 0.0
-0.10073069 -0.11608640 0.0
-0.08767305 -0.11961651 0.0
-0.07424052 -0.12041786 0.0
-0.06075125 -0.11824866 0.0
-0.04757093 -0.11291149 0.0
-0.03510949 -0.10426995 0.0
-0.02381473 -0.09226566 0.0
-0.01416291 -0.07693424 0.0
-0.00664646 -0.05841902 0.0
-0.00175938 -0.03698093 0.0
0.00000000 -0.01494482 0.0
-0.00190730 0.01494873 0.0
-0.00720359 0.04225034 0.0
-0.01531464 0.06643210 0.0
-0.02568347 0.08711672 0.0
-0.03776068 0.10406766 0.0
-0.05102136 0.11718044 0.0
-0.06497894 0.12646870 0.0
-0.07919515 0.13204623 0.0
-0.09328608 0.13410701 0.0
-0.10692448 0.13290476 0.0
-0.11983886 0.12873356 0.0
-0.13181003 0.12191063 0.0
-0.14266589 0.11276188 0.0
-0.15227510 0.10161076 0.0
-0.16054033 0.08877032 0.0
-0.16739166 0.07453829 0.0
-0.17278038 0.05919506 0.0
-0.17667374 0.04300382 0.0
-0.17905062 0.02621272 0.0
-0.17989841 0.00905846 0.0
-0.17921118 -0.00822913 0.0
-0.17698902 -0.02542192 0.0
-0.17323889 -0.04228811 0.0
-0.16797657 -0.05858711 0.0
-0.16123002 -0.07406505 0.0
-0.15304391 -0.08845138 0.0
-0.14348510 -0.10145701 0.0
-0.13264911 -0.11277447 0.0
-0.12066689 -0.12208048 0.0
-0.10771185 -0.12904144 0.0
-0.09400622 -0.13332214 0.0
-0.07982631 -0.13459777 0.0
-0.06550579 -0.13256918 0.0
-0.05143625 -0.12698104 0.0
-0.03806433 -0.11764188 0.0
-0.02588498 -0.10444501 0.0
-0.01543061 -0.08738861 0.0
-0.00725648 -0.06659316 0.0
-0.00192282 -0.04231458 0.0
0.00000000 -0.01705999 0.0
-0.00207926 0.01706481 0.0
-0.00784404 0.04801512 0.0
-0.01663712 0.07522518 0.0
-0.02782695 0.09830655 0.0
-0.04079452 0.11703523 0.0
-0.05495412 0.13134004 0.0