# vtk DataFile Version 4.0
2D velocity field
ASCII
DATASET STRUCTURED_GRID
DIMENSIONS 40 40 1
POINTS 1600 float
0.00000000 0.00000000 1.0
1.00000000 0.00000000 1.0
2.00000000 0.00000000 1.0
3.00000000 0.00000000 1.0
4.00000000 0.00000000 1.0
5.00000000 0.00000000 1.0
6.00000000 0.00000000 1.0
7.00000000 0.00000000 1.0
8.00000000 0.00000000 1.0
9.00000000 0.00000000 1.0
10.00000000 0.00000000 1.0
11.00000000 0.00000000 1.0
12.00000000 0.00000000 1.0
13.00000000 0.00000000 1.0
14.00000000 0.00000000 1.0
15.00000000 0.00000000 1.0
16.00000000 0.00000000 1.0
17.00000000 0.00000000 1.0
18.00000000 0.00000000 1.0
19.00000000 0.00000000 1.0
20.00000000 0.00000000 1.0
21.00000000 0.00000000 1.0
22.00000000 0.00000000 1.0
23.00000000 0.00000000 1.0
24.00000000 0.00000000 1.0
25.00000000 0.00000000 1.0
26.00000000 0.00000000 1.0
27.00000000 0.00000000 1.0
28.00000000 0.00000000 1.0
29.00000000 0.00000000 1.0
30.00000000 0.00000000 1.0
31.00000000 0.00000000 1.0
32.00000000 0.00000000 1.0
33.00000000 0.00000000 1.0
34.00000000 0.00000000 1.0
35.00000000 0.00000000 1.0
36.00000000 0.00000000 1.0
37.00000000 0.00000000 1.0
38.00000000 0.00000000 1.0
39.00000000 0.00000000 1.0
0.00000000 1.00000000 1.0
1.00000000 1.00000000 1.0
2.00000000 1.00000000 1.0
3.00000000 1.00000000 1.0
4.00000000 1.00000000 1.0
5.00000000 1.00000000 1.0
6.00000000 1.00000000 1.0
7.00000000 1.00000000 1.0
8.00000000 1.00000000 1.0
9.00000000 1.00000000 1.0
10.00000000 1.00000000 1.0
11.00000000 1.00000000 1.0
12.00000000 1.00000000 1.0
13.00000000 1.00000000 1.0
14.00000000 1.00000000 1.0
15.00000000 1.00000000 1.0
16.00000000 1.00000000 1.0
17.00000000 1.00000000 1.0
18.00000000 1.00000000 1.0
19.00000000 1.00000000 1.0
20.00000000 1.00000000 1.0
21.00000000 1.00000000 1.0
22.00000000 1.00000000 1.0
23.00000000 1.00000000 1.0
24.00000000 1.00000000 1.0
25.00000000 1.00000000 1.0
26.00000000 1.00000000 1.0
27.00000000 1.00000000 1.0
28.00000000 1.00000000 1.0
29.00000000 1.00000000 1.0
30.00000000 1.00000000 1.0
31.00000000 1.00000000 1.0
32.00000000 1.00000000 1.0
33.00000000 1.00000000 1.0
34.00000000 1.00000000 1.0
35.00000000 1.00000000 1.0
36.00000000 1.00000000 1.0
37.00000000 1.00000000 1.0
38.00000000 1.00000000 1.0
39.00000000 1.00000000 1.0
0.00000000 2.00000000 1.0
1.00000000 2.00000000 1.0
2.00000000 2.00000000 1.0
3.00000000 2.00000000 1.0
4.00000000 2.00000000 1.0
5.00000000 2.00000000 1.0
6.00000000 2.00000000 1.0
7.00000000 2.00000000 1.0
8.00000000 2.00000000 1.0
9.00000000 2.00000000 1.0
10.00000000 2.00000000 1.0
11.00000000 2.00000000 1.0
12.00000000 2.00000000 1.0
13.00000000 2.00000000 1.0
14.00000000 2.00000000 1.0
15.00000000 2.00000000 1.0
16.00000000 2.00000000 1.0
17.00000000 2.00000000 1.0
18.00000000 2.00000000 1.0
19.00000000 2.00000000 1.0
20.00000000 2.00000000 1.0
21.00000000 2.00000000 1.0
22.00000000 2.00000000 1.0
23.00000000 2.00000000 1.0
24.00000000 2.00000000 1.0
25.00000000 2.00000000 1.0
26.00000000 2.00000000 1.0
27.00000000 2.00000000 1.0
28.00000000 2.00000000 1.0
29.00000000 2.00000000 1.0
30.00000000 2.00000000 1.0
31.00000000 2.00000000 1.0
32.00000000 2.00000000 1.0
33.00000000 2.00000000 1.0
34.00000000 2.00000000 1.0
35.00000000 2.00000000 1.0
36.00000000 2.00000000 1.0
37.00000000 2.00000000 1.0
38.00000000 2.00000000 1.0
39.00000000 2.00000000 1.0
0.00000000 3.00000000 1.0
1.00000000 3.00000000 1.0
2.00000000 3.00000000 1.0
3.00000000 3.00000000 1.0
4.00000000 3.00000000 1.0
5.00000000 3.00000000 1.0
6.00000000 3.00000000 1.0
7.00000000 3.00000000 1.0
8.00000000 3.00000000 1.0
9.00000000 3.00000000 1.0
10.00000000 3.00000000 1.0
11.00000000 3.00000000 1.0
12.00000000 3.00000000 1.0
13.00000000 3.00000000 1.0
14.00000000 3.00000000 1.0
15.00000000 3.00000000 1.0
16.00000000 3.00000000 1.0
17.00000000 3.00000000 1.0
18.00000000 3.00000000 1.0
19.00000000 3.00000000 1.0
20.00000000 3.00000000 1.0
21.00000000 3.00000000 1.0
22.00000000 3.00000000 1.0
23.00000000 3.00000000 1.0
24.00000000 3.00000000 1.0
25.00000000 3.00000000 1.0
26.00000000 3.00000000 1.0
27.00000000 3.00000000 1.0
28.00000000 3.00000000 1.0
29.00000000 3.00000000 1.0
30.00000000 3.00000000 1.0
31.00000000 3.00000000 1.0
32.00000000 3.00000000 1.0
33.00000000 3.00000000 1.0
34.00000000 3.00000000 1.0
35.00000000 3.00000000 1.0
36.00000000 3.00000000 1.0
37.00000000 3.00000000 1.0
38.00000000 3.00000000 1.0
39.00000000 3.00000000 1.0
0.00000000 4.00000000 1.0
1.00000000 4.00000000 1.0
2.00000000 4.00000000 1.0
3.00000000 4.00000000 1.0
4.00000000 4.00000000 1.0
5.00000000 4.00000000 1.0
6.00000000 4.00000000 1.0
7.00000000 4.00000000 1.0
8.00000000 4.00000000 1.0
9.00000000 4.00000000 1.0
10.00000000 4.00000000 1.0
11.00000000 4.00000000 1.0
12.00000000 4.00000000 1.0
13.00000000 4.00000000 1.0
14.00000000 4.00000000 1.0
15.00000000 4.00000000 1.0
16.00000000 4.00000000 1.0
17.00000000 4.00000000 1.0
18.00000000 4.00000000 1.0
19.00000000 4.00000000 1.0
20.00000000 4.00000000 1.0
21.00000000 4.00000000 1.0
22.00000000 4.00000000 1.0
23.00000000 4.00000000 1.0
24.00000000 4.00000000 1.0
25.00000000 4.00000000 1.0
26.00000000 4.00000000 1.0
27.00000000 4.00000000 1.0
28.00000000 4.00000000 1.0
29.00000000 4.00000000 1.0
30.00000000 4.00000000 1.0
31.00000000 4.00000000 1.0
32.00000000 4.00000000 1.0
33.00000000 4.00000000 1.0
34.00000000 4.00000000 1.0
35.00000000 4.00000000 1.0
36.00000000 4.00000000 1.0
37.00000000 4.00000000 1.0
38.00000000 4.00000000 1.0
39.00000000 4.00000000 1.0
0.00000000 5.00000000 1.0
1.00000000 5.00000000 1.0
2.00000000 5.00000000 1.0
3.00000000 5.00000000 1.0
4.00000000 5.00000000 1.0
5.00000000 5.00000000 1.0
6.00000000 5.00000000 1.0
7.00000000 5.00000000 1.0
8.00000000 5.00000000 1.0
9.00000000 5.00000000 1.0
10.00000000 5.00000000 1.0
11.00000000 5.00000000 1.0
12.00000000 5.00000000 1.0
13.00000000 5.00000000 1.0
14.00000000 5.00000000 1.0
15.00000000 5.00000000 1.0
16.00000000 5.00000000 1.0
17.00000000 5.00000000 1.0
18.00000000 5.00000000 1.0
19.00000000 5.00000000 1.0
20.00000000 5.00000000 1.0
21.00000000 5.00000000 1.0
22.00000000 5.00000000 1.0
23.00000000 5.00000000 1.0
24.00000000 5.00000000 1.0
25.00000000 5.00000000 1.0
26.00000000 5.00000000 1.0
27.00000000 5.00000000 1.0
28.00000000 5.00000000 1.0
29.00000000 5.00000000 1.0
30.00000000 5.00000000 1.0
31.00000000 5.00000000 1.0
32.00000000 5.00000000 1.0
33.00000000 5.00000000 1.0
34.00000000 5.00000000 1.0
35.00000000 5.00000000 1.0
36.00000000 5.00000000 1.0
37.00000000 5.00000000 1.0
38.00000000 5.00000000 1.0
39.00000000 5.00000000 1.0
0.00000000 6.00000000 1.0
1.00000000 6.00000000 1.0
2.00000000 6.00000000 1.0
3.00000000 6.00000000 1.0
4.00000000 6.00000000 1.0
5.00000000 6.00000000 1.0
6.00000000 6.00000000 1.0
7.00000000 6.00000000 1.0
8.00000000 6.00000000 1.0
9.00000000 6.00000000 1.0
10.00000000 6.00000000 1.0
11.00000000 6.00000000 1.0
12.00000000 6.00000000 1.0
13.00000000 6.00000000 1.0
14.00000000 6.00000000 1.0
15.00000000 6.00000000 1.0
16.00000000 6.00000000 1.0
17.00000000 6.00000000 1.0
18.00000000 6.00000000 1.0
19.00000000 6.00000000 1.0
20.00000000 6.00000000 1.0
21.00000000 6.00000000 1.0
22.00000000 6.00000000 1.0
23.00000000 6.00000000 1.0
24.00000000 6.00000000 1.0
25.00000000 6.00000000 1.0
26.00000000 6.00000000 1.0
27.00000000 6.00000000 1.0
28.00000000 6.00000000 1.0
29.00000000 6.00000000 1.0
30.00000000 6.00000000 1.0
31.00000000 6.00000000 1.0
32.00000000 6.00000000 1.0
33.00000000 6.00000000 1.0
34.00000000 6.00000000 1.0
35.00000000 6.00000000 1.0
36.00000000 6.00000000 1.0
37.00000000 6.00000000 1.0
38.00000000 6.00000000 1.0
39.00000000 6.00000000 1.0
0.00000000 7.00000000 1.0
1.00000000 7.00000000 1.0
2.00000000 7.00000000 1.0
3.00000000 7.00000000 1.0
4.00000000 7.00000000 1.0
5.00000000 7.00000000 1.0
6.00000000 7.00000000 1.0
7.00000000 7.00000000 1.0
8.00000000 7.00000000 1.0
9.00000000 7.00000000 1.0
10.00000000 7.00000000 1.0
11.00000000 7.00000000 1.0
12.00000000 7.00000000 1.0
13.00000000 7.00000000 1.0
14.00000000 7.00000000 1.0
15.00000000 7.00000000 1.0
16.00000000 7.00000000 1.0
17.00000000 7.00000000 1.0
18.00000000 7.00000000 1.0
19.00000000 7.00000000 1.0
20.00000000 7.00000000 1.0
21.00000000 7.00000000 1.0
22.00000000 7.00000000 1.0
23.00000000 7.00000000 1.0
24.00000000 7.00000000 1.0
25.00000000 7.00000000 1.0
26.00000000 7.00000000 1.0
27.00000000 7.00000000 1.0
28.00000000 7.00000000 1.0
29.00000000 7.00000000 1.0
30.00000000 7.00000000 1.0
31.00000000 7.00000000 1.0
32.00000000 7.00000000 1.0
33.00000000 7.00000000 1.0
34.00000000 7.00000000 1.0
35.00000000 7.00000000 1.0
36.00000000 7.00000000 1.0
37.00000000 7.00000000 1.0
38.00000000 7.00000000 1.0
39.00000000 7.00000000 1.0
0.00000000 8.00000000 1.0
1.00000000 8.00000000 1.0
2.00000000 8.00000000 1.0
3.00000000 8.00000000 1.0
4.00000000 8.00000000 1.0
5.00000000 8.00000000 1.0
6.00000000 8.00000000 1.0
7.00000000 8.00000000 1.0
8.00000000 8.00000000 1.0
9.00000000 8.00000000 1.0
10.00000000 8.00000000 1.0
11.00000000 8.00000000 1.0
12.00000000 8.00000000 1.0
13.00000000 8.00000000 1.0
14.00000000 8.00000000 1.0
15.00000000 8.00000000 1.0
16.00000000 8.00000000 1.0
17.00000000 8.00000000 1.0
18.00000000 8.00000000 1.0
19.00000000 8.00000000 1.0
20.00000000 8.00000000 1.0
21.00000000 8.00000000 1.0
22.00000000 8.00000000 1.0
23.00000000 8.00000000 1.0
24.00000000 8.00000000 1.0
25.00000000 8.00000000 1.0
26.00000000 8.00000000 1.0
27.00000000 8.00000000 1.0
28.00000000 8.00000000 1.0
29.00000000 8.00000000 1.0
30.00000000 8.00000000 1.0
31.00000000 8.00000000 1.0
32.00000000 8.00000000 1.0
33.00000000 8.00000000 1.0
34.00000000 8.00000000 1.0
35.00000000 8.00000000 1.0
36.00000000 8.00000000 1.0
37.00000000 8.00000000 1.0
38.00000000 8.00000000 1.0
39.00000000 8.00000000 1.0
0.00000000 9.00000000 1.0
1.00000000 9.00000000 1.0
2.00000000 9.00000000 1.0
3.00000000 9.00000000 1.0
4.00000000 9.00000000 1.0
5.00000000 9.00000000 1.0
6.00000000 9.00000000 1.0
7.00000000 9.00000000 1.0
8.00000000 9.00000000 1.0
[...]
POINT_DATA 1600
VECTORS velocity double
0.00000000 0.00003257 0.0
0.00000027 -0.00003271 0.0
0.00000052 -0.00001189 0.0
0.00000069 0.00005219 0.0
0.00000074 0.00012949 0.0
0.00000070 0.00020471 0.0
0.00000060 0.00027078 0.0
0.00000044 0.00032459 0.0
0.00000025 0.00036499 0.0
0.00000004 0.00039183 0.0
-0.00000018 0.00040547 0.0
-0.00000041 0.00040660 0.0
-0.00000063 0.00039614 0.0
-0.00000083 0.00037510 0.0
-0.00000102 0.00034463 0.0
-0.00000118 0.00030590 0.0
-0.00000132 0.00026015 0.0
-0.00000144 0.00020861 0.0
-0.00000152 0.00015256 0.0
-0.00000157 0.00009327 0.0
-0.00000158 0.00003201 0.0
-0.00000157 -0.00002993 0.0
-0.00000152 -0.00009127 0.0
-0.00000144 -0.00015072 0.0
-0.00000133 -0.00020698 0.0
-0.00000119 -0.00025876 0.0
-0.00000102 -0.00030477 0.0
-0.00000083 -0.00034372 0.0
-0.00000063 -0.00037435 0.0
-0.00000041 -0.00039547 0.0
-0.00000018 -0.00040592 0.0
0.00000004 -0.00040467 0.0
0.00000025 -0.00039081 0.0
0.00000044 -0.00036368 0.0
0.00000060 -0.00032294 0.0
0.00000071 -0.00026879 0.0
0.00000074 -0.00020244 0.0
0.00000069 -0.00012703 0.0
0.00000052 -0.00004970 0.0
0.00000026 0.00001418 0.0
0.00000000 0.00009909 0.0
0.00010878 -0.00009970 0.0
0.00008557 0.00002588 0.0
-0.00015124 0.00030460 0.0
-0.00063767 0.00063289 0.0
-0.00136896 0.00095446 0.0
-0.00231836 0.00124003 0.0
-0.00344778 0.00147506 0.0
-0.00471386 0.00165302 0.0
-0.00607157 0.00177197 0.0
-0.00747628 0.00183270 0.0
-0.00888524 0.00183771 0.0
-0.01025843 0.00179066 0.0
-0.01155918 0.00169593 0.0
-0.01275458 0.00155846 0.0
-0.01381579 0.00138350 0.0
-0.01471818 0.00117655 0.0
-0.01544147 0.00094327 0.0
-0.01596981 0.00068940 0.0
-0.01629180 0.00042073 0.0
-0.01640054 0.00014308 0.0
-0.01629364 -0.00013767 0.0
-0.01597323 -0.00041566 0.0
-0.01544597 -0.00068499 0.0
-0.01472310 -0.00093975 0.0
-0.01382036 -0.00117405 0.0
-0.01275803 -0.00138202 0.0
-0.01156082 -0.00155789 0.0
-0.01025776 -0.00169604 0.0
-0.00888200 -0.00179110 0.0
-0.00747054 -0.00183808 0.0
-0.00606371 -0.00183255 0.0
-0.00470459 -0.00177091 0.0
-0.00343801 -0.00165074 0.0
-0.00230915 -0.00147137 0.0
-0.00136136 -0.00123496 0.0
-0.00063253 -0.00094823 0.0
-0.00014906 -0.00062598 0.0
0.00008486 -0.00029772 0.0
0.00010601 -0.00002004 0.0
0.00000000 0.00010517 0.0
0.00003316 -0.00010633 0.0
-0.00021077 0.00026981 0.0
-0.00083016 0.00092398 0.0
-0.00186845 0.00167118 0.0
-0.00331674 0.00240275 0.0
-0.00513313 0.00305642 0.0
-0.00725592 0.00359785 0.0
-0.00961266 0.00400976 0.0
-0.01212614 0.00428545 0.0
-0.01471850 0.00442506 0.0
-0.01731403 0.00443324 0.0
-0.01984110 0.00431773 0.0
-0.02223357 0.00408840 0.0
-0.02443171 0.00375659 0.0
-0.02638288 0.00333466 0.0
-0.02804198 0.00283566 0.0
-0.02937179 0.00227309 0.0
-0.03034313 0.00166074 0.0
-0.03093502 0.00101261 0.0
-0.03113473 0.00034280 0.0
-0.03093789 -0.00033452 0.0
-0.03034845 -0.00100510 0.0
-0.02937876 -0.00165468 0.0
-0.02804952 -0.00226899 0.0
-0.02638975 -0.00283382 0.0
-0.02443667 -0.00333510 0.0
-0.02223552 -0.00375904 0.0
-0.01983923 -0.00409233 0.0
-0.01730794 -0.00432238 0.0
-0.01470832 -0.00443770 0.0
-0.01211250 -0.00442837 0.0
-0.00959668 -0.00428673 0.0
-0.00723910 -0.00400831 0.0
-0.00511717 -0.00359331 0.0
-0.00330330 -0.00304883 0.0
-0.00185886 -0.00239267 0.0
-0.00082513 -0.00165971 0.0
-0.00021008 -0.00091277 0.0
0.00003086 -0.00026099 0.0
0.00000000 -0.00002630 0.0
-0.00010696 0.00002484 0.0
-0.00066958 0.00083243 0.0
-0.00175557 0.00200997 0.0
-0.00339262 0.00330823 0.0
-0.00555946 0.00456958 0.0
-0.00819971 0.00569667 0.0
-0.01123364 0.00663178 0.0
-0.01456730 0.00734342 0.0
-0.01809960 0.00781774 0.0
-0.02172746 0.00805292 0.0
-0.02534975 0.00805553 0.0
-0.02887004 0.00783802 0.0
-0.03219871 0.00741708 0.0
-0.03525445 0.00681233 0.0
-0.03796532 0.00604553 0.0
-0.04026950 0.00513984 0.0
-0.04211584 0.00411942 0.0
-0.04346418 0.00300909 0.0
-0.04428563 0.00183406 0.0
-0.04456265 0.00061982 0.0
-0.04428922 -0.00060794 0.0
-0.04347085 -0.00182348 0.0
-0.04212457 -0.00300096 0.0
-0.04027893 -0.00411462 0.0
-0.03797389 -0.00513886 0.0
-0.03526059 -0.00604840 0.0
-0.03220102 -0.00681862 0.0
-0.02886748 -0.00742587 0.0
-0.02534182 -0.00784805 0.0
-0.02171427 -0.00806525 0.0
-0.01808192 -0.00806073 0.0
-0.01454652 -0.00782213 0.0
-0.01121161 -0.00734322 0.0
-0.00817856 -0.00662636 0.0
-0.00554126 -0.00568613 0.0
-0.00337907 -0.00455486 0.0
-0.00174760 -0.00329118 0.0
-0.00066704 -0.00199333 0.0
-0.00010844 -0.00081959 0.0
0.00000000 -0.00030955 0.0
-0.00026185 0.00030800 0.0
-0.00118047 0.00175105 0.0
-0.00277241 0.00360191 0.0
-0.00503379 0.00556961 0.0
-0.00792182 0.00745761 0.0
-0.01136219 0.00913704 0.0
-0.01525758 0.01052717 0.0
-0.01949565 0.01158150 0.0
-0.02395590 0.01227799 0.0
-0.02851518 0.01261220 0.0
-0.03305217 0.01259251 0.0
-0.03745073 0.01223659 0.0
-0.04160254 0.01156888 0.0
-0.04540897 0.01061877 0.0
-0.04878258 0.00941913 0.0
-0.05164805 0.00800531 0.0
-0.05394297 0.00641435 0.0
-0.05561831 0.00468443 0.0
-0.05663873 0.00285448 0.0
-0.05698281 0.00096391 0.0
-0.05664319 -0.00094757 0.0
-0.05562661 -0.00284006 0.0
-0.05395393 -0.00467364 0.0
-0.05166006 -0.00640849 0.0
-0.04879379 -0.00800512 0.0
-0.04541751 -0.00942468 0.0
-0.04160670 -0.01062942 0.0
-0.03744924 -0.01158333 0.0
-0.03304434 -0.01225295 0.0
-0.02850105 -0.01260854 0.0
-0.02393626 -0.01262552 0.0
-0.01947202 -0.01228636 0.0
-0.01523205 -0.01158319 0.0
-0.01133720 -0.01052121 0.0
-0.00789982 -0.00912351 0.0
-0.00501684 -0.00743784 0.0
-0.00276176 -0.00554626 0.0
-0.00117622 -0.00357887 0.0
-0.00026264 -0.00173317 0.0
0.00000000 -0.00074091 0.0
-0.00041321 0.00073939 0.0
-0.00169340 0.00303124 0.0
-0.00380240 0.00571091 0.0
-0.00669671 0.00846392 0.0
-0.01030505 0.01106596 0.0
-0.01453081 0.01336279 0.0
-0.01925733 0.01525370 0.0
-0.02435425 0.01667842 0.0
-0.02968349 0.01760723 0.0
-0.03510469 0.01803340 0.0
-0.04047969 0.01796751 0.0
-0.04567622 0.01743311 0.0
-0.05057076 0.01646343 0.0
-0.05505079 0.01509880 0.0
-0.05901639 0.01338473 0.0
-0.06238147 0.01137039 0.0
-0.06507465 0.00910752 0.0
-0.06703979 0.00664957 0.0
-0.06823644 0.00405113 0.0
-0.06864009 0.00136755 0.0
-0.06824229 -0.00134537 0.0
-0.06705076 -0.00403159 0.0
-0.06508936 -0.00663503 0.0
-0.06239805 -0.00909980 0.0
-0.05903264 -0.01137054 0.0
-0.05506446 -0.01339287 0.0
-0.05057977 -0.01511411 0.0
-0.04567894 -0.01648416 0.0
-0.04047514 -0.01745675 0.0
-0.03509269 -0.01799099 0.0
-0.02966473 -0.01805347 0.0
-0.02433028 -0.01762082 0.0
-0.01923040 -0.01668307 0.0
-0.01450361 -0.01524799 0.0
-0.01028042 -0.01334671 0.0
-0.00667711 -0.01104115 0.0
-0.00378954 -0.00843383 0.0
-0.00168771 -0.00568070 0.0
-0.00041346 -0.00300742 0.0
0.00000000 -0.00131164 0.0
-0.00055572 0.00131026 0.0
-0.00218927 0.00466479 0.0
-0.00481150 0.00833314 0.0
-0.00833681 0.01198923 0.0
-0.01266128 0.01539043 0.0
-0.01766223 0.01836374 0.0
-0.02320127 0.02079274 0.0
-0.02912898 0.02260612 0.0
-0.03529000 0.02376825 0.0
-0.04152798 0.02427137 0.0
-0.04768984 0.02412938 0.0
-0.05362951 0.02337279 0.0
-0.05921083 0.02204475 0.0
-0.06430989 0.02019785 0.0
-0.06881675 0.01789159 0.0
-0.07263676 0.01519040 0.0
-0.07569145 0.01216221 0.0
-0.07791915 0.00887727 0.0
-0.07927542 0.00540740 0.0
-0.07973331 0.00182545 0.0
-0.07928354 -0.00179514 0.0
-0.07793453 -0.00538060 0.0
-0.07571245 -0.00885711 0.0
-0.07266114 -0.01215112 0.0
-0.06884186 -0.01518982 0.0
-0.06433295 -0.01790177 0.0
-0.05922924 -0.02021782 0.0
-0.05364110 -0.02207230 0.0
-0.04769316 -0.02340469 0.0
-0.04152246 -0.02416169 0.0
-0.03527609 -0.02429984 0.0
-0.02910810 -0.02378880 0.0
-0.02317576 -0.02261541 0.0
-0.01763504 -0.02078872 0.0
-0.01263561 -0.01834614 0.0
-0.00831565 -0.01536111 0.0
-0.00479707 -0.01195240 0.0
-0.00218248 -0.00829530 0.0
-0.00055554 -0.00463435 0.0
0.00000000 -0.00201301 0.0
-0.00068921 0.00201185 0.0
-0.00266404 0.00663962 0.0
-0.00578995 0.01145905 0.0
-0.00993975 0.01613903 0.0
-0.01497487 0.02042555 0.0
-0.02074390 0.02413278 0.0
-0.02708439 0.02713323 0.0
-0.03382636 0.02934809 0.0
-0.04079658 0.03073848 0.0
-0.04782294 0.03129773 0.0
-0.05473840 0.03104484 0.0
-0.06138450 0.03001889 0.0
-0.06761419 0.02827444 0.0
-0.07329407 0.02587773 0.0
-0.07830610 0.02290362 0.0
-0.08254886 0.01943316 0.0
-0.08593839 0.01555174 0.0
-0.08840880 0.01134768 0.0
-0.08991263 0.00691124 0.0
-0.09042110 0.00233392 0.0
-0.08992425 -0.00229200 0.0
-0.08843099 -0.00687386 0.0
-0.08596917 -0.01131893 0.0
-0.08258547 -0.01553482 0.0
-0.07834527 -0.01943002 0.0
-0.07333232 -0.02291473 0.0
-0.06764814 -0.02590199 0.0
-0.06141123 -0.02830921 0.0
-0.05475574 -0.03006019 0.0
-0.04782972 -0.03108771 0.0
-0.04079280 -0.03133676 0.0
-0.03381320 -0.03076840 0.0
-0.02706414 -0.02936447 0.0
-0.02071972 -0.02713315 0.0
-0.01495036 -0.02411549 0.0
-0.00991849 -0.02039298 0.0
-0.00577483 -0.01609607 0.0
-0.00265656 -0.01141357 0.0
-0.00068873 -0.00660218 0.0
0.00000000 -0.00283819 0.0
-0.00081540 0.00283731 0.0
-0.00312061 0.00894483 0.0
-0.00674058 0.01507902 0.0
-0.01150817 0.02090662 0.0
-0.01724940 0.02616678 0.0
-0.02378238 0.03066575 0.0
-0.03091862 0.03426947 0.0
-0.03846602 0.03689549 0.0
-0.04623253 0.03850499 0.0
-0.05402999 0.03909518 0.0
-0.06167772 0.03869258 0.0
-0.06900574 0.03734690 0.0
-0.07585729 0.03512599 0.0
-0.08209094 0.03211138 0.0
-0.08758208 0.02839476 0.0
-0.09222402 0.02407510 0.0
-0.09592868 0.01925640 0.0
-0.09862708 0.01404608 0.0
-0.10026960 0.00855376 0.0
-0.10082615 0.00289047 0.0
-0.10028624 -0.00283191 0.0
-0.09865909 -0.00850102 0.0
-0.09597360 -0.01400441 0.0
-0.09227845 -0.01922997 0.0
-0.08764190 -0.02406656 0.0
-0.08215170 -0.02840493 0.0
-0.07591458 -0.03213912 0.0
-0.06905557 -0.03516821 0.0
-0.06171694 -0.03739882 0.0
-0.05405654 -0.03874812 0.0
-0.04624572 -0.03914759 0.0
-0.03846657 -0.03854754 0.0
-0.03090866 -0.03692238 0.0
-0.02376519 -0.03427662 0.0
-0.01722902 -0.03065166 0.0
-0.01148882 -0.02613318 0.0
-0.00672596 -0.02085893 0.0
-0.00311299 -0.01502654 0.0
-0.00081476 -0.00890041 0.0
0.00000000 -0.00378274 0.0
-0.00093658 0.00378219 0.0
-0.00356475 0.01157300 0.0
-0.00767227 0.01918654 0.0
-0.01305356 0.02628790 0.0
-0.01949904 0.03261226 0.0
-0.02679505 0.03796176 0.0
-0.03472550 0.04219992 0.0
-0.04307471 0.04524470 0.0
-0.05163073 0.04706100 0.0
-0.06018884 0.04765330 0.0
-0.06855481 0.04705854 0.0
-0.07654760 0.04533969 0.0
-0.08400171 0.04258009 0.0
-0.09076882 0.03887850 0.0
-0.09671908 0.03434502 0.0
-0.10174182 0.02909784 0.0
-0.10574610 0.02326068 0.0
-0.10866088 0.01696087 0.0
-0.11043518 0.01032806 0.0
-0.11103806 0.00349335 0.0
-0.11045868 -0.00341129 0.0
-0.10870631 -0.01025339 0.0
-0.10581041 -0.01690031 0.0
-0.10182076 -0.02321963 0.0
-0.09680745 -0.02907987 0.0
-0.09086092 -0.03435146 0.0
-0.08409176 -0.03890828 0.0
-0.07663024 -0.04262973 0.0
-0.06862551 -0.04540354 0.0
-0.06024436 -0.04712927 0.0
-0.05166935 -0.04772259 0.0
-0.04309648 -0.04712041 0.0
-0.03473220 -0.04528667 0.0
-0.02678997 -0.04221885 0.0
-0.01948663 -0.03795500 0.0
-0.01303876 -0.03258104 0.0
-0.00765971 -0.02623799 0.0
-0.00355773 -0.01912851 0.0
-0.00093599 -0.01152215 0.0
0.00000000 -0.00484464 0.0
-0.00105508 0.00484448 0.0
-0.00400316 0.01452107 0.0
-0.00859632 0.02377970 0.0
-0.01459142 0.03228300 0.0
-0.02174296 0.03976381 0.0
-0.02980447 0.04602327 0.0
-0.03853088 0.05092633 0.0
-0.04768156 0.05439539 0.0
-0.05702373 0.05640316 0.0
-0.06633557 0.05696514 0.0
-0.07540920 0.05613217 0.0
-0.08405304 0.05398353 0.0
-0.09209360 0.05062065 0.0
-0.09937680 0.04616170 0.0
-0.10576875 0.04073697 0.0
-0.11115612 0.03448521 0.0
-0.11544625 0.02755082 0.0
-0.11856712 0.02008173 0.0
-0.12046713 0.01222807 0.0
-0.12111498 0.00414120 0.0
-0.12049959 -0.00402668 0.0
-0.11863011 -0.01212288 0.0
-0.11553600 -0.01999442 0.0
-0.11126729 -0.02748834 0.0
-0.10589482 -0.03445233 0.0
-0.09951051 -0.04073577 0.0
-0.09222745 -0.04619134 0.0
-0.08417989 -0.05067730 0.0
-0.07552279 -0.05406064 0.0
-0.06643103 -0.05622103 0.0
-0.05709802 -0.05705561 0.0
-0.04773370 -0.05648473 0.0
-0.03856204 -0.05445833 0.0
-0.02981784 -0.05096304 0.0
-0.02174332 -0.04602952 0.0
-0.01458448 -0.03973988 0.0
-0.00858782 -0.03223465 0.0
-0.00399769 -0.02371864 0.0
-0.00105481 -0.01446503 0.0
0.00000000 -0.00602416 0.0
-0.00117307 0.00602442 0.0
-0.00444251 0.01779050 0.0
-0.00952453 0.02886173 0.0
-0.01613838 0.03889685 0.0
-0.02400190 0.04762733 0.0
-0.03283462 0.05485599 0.0
-0.04236113 0.06045284 0.0
-0.05231471 0.06434896 0.0
-0.06244077 0.06652923 0.0
-0.07250002 0.06702439 0.0
-0.08227099 0.06590315 0.0
-0.09155205 0.06326459 0.0
-0.10016265 0.05923125 0.0
-0.10794409 0.05394314 0.0
-0.11475977 0.04755265 0.0
-0.12049504 0.04022048 0.0
-0.12505681 0.03211259 0.0
-0.12837311 0.02339803 0.0
-0.13039257 0.01424752 0.0
-0.13108404 0.00483267 0.0
-0.13043634 -0.00467437 0.0
-0.12845826 -0.01410096 0.0
-0.12517871 -0.02327397 0.0
-0.12064709 -0.03201995 0.0
-0.11493384 -0.04016558 0.0
-0.10813101 -0.04753861 0.0
-0.10035283 -0.05396951 0.0
-0.09173616 -0.05929397 0.0
-0.08244058 -0.06335622 0.0
-0.07264818 -0.06601343 0.0
-0.06256267 -0.06714111 0.0
-0.05240799 -0.06663941 0.0
-0.04242607 -0.06444025 0.0
-0.03287406 -0.06051506 0.0
-0.02402087 -0.05488271 0.0
-0.01614339 -0.04761736 0.0
-0.00952259 -0.03885545 0.0
-0.00443980 -0.02880143 0.0
-0.00117344 -0.01773139 0.0
0.00000000 -0.00732357 0.0
-0.00129249 0.00732432 0.0
-0.00488908 0.02138709 0.0
-0.01046833 0.03444098 0.0
-0.01771073 0.04613925 0.0
-0.02629612 0.05621272 0.0
-0.03590849 0.06446837 0.0
-0.04624068 0.07078502 0.0
-0.05699865 0.07510693 0.0
-0.06790532 0.07743590 0.0
-0.07870363 0.07782271 0.0
-0.08915885 0.07635837 0.0
-0.09906001 0.07316574 0.0
-0.10822064 0.06839188 0.0
-0.11647885 0.06220135 0.0
-0.12369685 0.05477065 0.0
-0.12976020 0.04628382 0.0
-0.13457681 0.03692921 0.0
-0.13807599 0.02689721 0.0
-0.14020751 0.01637904 0.0
-0.14094090 0.00556606 0.0
-0.14026509 -0.00535018 0.0
-0.13818826 -0.01617779 0.0
-0.13473813 -0.02672410 0.0
-0.12996251 -0.03679558 0.0
-0.12393014 -0.04619795 0.0
-0.11673171 -0.05473703 0.0
-0.10848101 -0.06222022 0.0
-0.09931589 -0.06845909 0.0
-0.08939915 -0.07327296 0.0
-0.07891891 -0.07649367 0.0
-0.06808848 -0.07797154 0.0
-0.05714549 -0.07758239 0.0
-0.04635021 -0.07523553 0.0
-0.03598293 -0.07088233 0.0
-0.02634059 -0.06452506 0.0
-0.01773255 -0.05622540 0.0
-0.01047594 -0.04611206 0.0
-0.00489058 -0.03438679 0.0
-0.00129392 -0.02132805 0.0
0.00000000 -0.00874700 0.0
-0.00141508 0.00874828 0.0
-0.00534863 0.02532063 0.0
-0.01143830 0.04053066 0.0
-0.01932363 0.05402457 0.0
-0.02864425 0.06553334 0.0
-0.03904665 0.07487077 0.0
-0.05019023 0.08192859 0.0
-0.06175245 0.08666916 0.0
-0.07343314 0.08911659 0.0
-0.08495750 0.08934706 0.0
-0.09607809 0.08747896 0.0
-0.10657578 0.08366343 0.0
-0.11625970 0.07807580 0.0
-0.12496651 0.07090816 0.0
-0.13255913 0.06236327 0.0
-0.13892517 0.05264986 0.0
-0.14397524 0.04197927 0.0
-0.14764132 0.03056329 0.0
-0.14987539 0.01861311 0.0
-0.15064835 0.00633902 0.0
-0.14994939 -0.00604914 0.0
-0.14778587 -0.01834131 0.0
-0.14418357 -0.03032639 0.0
-0.13918759 -0.04179156 0.0
-0.13286348 -0.05252206 0.0
-0.12529885 -0.06230166 0.0
-0.11660509 -0.07091398 0.0
-0.10691913 -0.07814504 0.0
-0.09640515 -0.08378695 0.0
-0.08525576 -0.08764307 0.0
-0.07369272 -0.08953458 0.0
-0.06196679 -0.08930832 0.0
-0.05035660 -0.08684573 0.0
-0.03916631 -0.08207262 0.0
-0.02872219 -0.07496918 0.0
-0.01936794 -0.06557965 0.0
-0.01145899 -0.05402100 0.0
-0.00535607 -0.04048972 0.0
-0.00141806 -0.02526605 0.0
0.00000000 -0.01030024 0.0
-0.00154240 0.01030210 0.0
-0.00582644 0.02960467 0.0
-0.01244420 0.04714842 0.0
-0.02099085 0.06257122 0.0
-0.03106280 0.07560529 0.0
-0.04226642 0.08607440 0.0
-0.05422569 0.09388786 0.0
-0.06658836 0.09903183 0.0
-0.07903070 0.10155892 0.0
-0.09126051 0.10157687 0.0
-0.10301875 0.09923720 0.0
-0.11407971 0.09472440 0.0
-0.12425016 0.08824625 0.0
-0.13336760 0.08002560 0.0
-0.14129801 0.07029368 0.0
-0.14793330 0.05928516 0.0
-0.15318880 0.04723477 0.0
-0.15700088 0.03437537 0.0
-0.15932497 0.02093719 0.0
-0.16013410 0.00714815 0.0
-0.15941799 -0.00676524 0.0
-0.15718286 -0.02057645 0.0
-0.15345177 -0.03405748 0.0
-0.14826577 -0.04697757 0.0
-0.14168548 -0.05910235 0.0
-0.13379332 -0.07019382 0.0
-0.12469595 -0.08001135 0.0
-0.11452698 -0.08831401 0.0
-0.10344958 -0.09486435 0.0
-0.09165877 -0.09943388 0.0
-0.07938311 -0.10181024 0.0
-0.06688545 -0.10180598 0.0
-0.05446246 -0.09926872 0.0
-0.04244272 -0.09409235 0.0
-0.03118322 -0.08622868 0.0
-0.02106411 -0.07569875 0.0
-0.01248202 -0.06260310 0.0
-0.00584183 -0.04712991 0.0
-0.00154752 -0.02956036 0.0
0.00000000 -0.01199063 0.0
-0.00167590 0.01199316 0.0
-0.00632744 0.03425621 0.0
-0.01349501 0.05431599 0.0
-0.02272483 0.07180104 0.0
-0.03356598 0.08644644 0.0
-0.04558145 0.09808987 0.0
-0.05835743 0.10666384 0.0
-0.07151068 0.11218508 0.0
-0.08469369 0.11474193 0.0
-0.09759764 0.11448083 0.0
-0.10995349 0.11159305 0.0
-0.12153125 0.10630216 0.0
-0.13213803 0.09885303 0.0
-0.14161509 0.08950266 0.0
-0.14983438 0.07851297 0.0
-0.15669491 0.06614568 0.0
-0.16211914 0.05265901 0.0
-0.16604984 0.03830607 0.0
-0.16844740 0.02333475 0.0
-0.16928789 0.00798864 0.0
-0.16856189 -0.00749124 0.0
-0.16627411 -0.02286422 0.0
-0.16244397 -0.03788762 0.0
-0.15710694 -0.05231461 0.0
-0.15031665 -0.06589263 0.0
-0.14214781 -0.07836266 0.0
-0.13269952 -0.08945965 0.0
-0.12209902 -0.09891451 0.0
-0.11050548 -0.10645789 0.0
-0.09811353 -0.11182582 0.0
-0.08515620 -0.11476757 0.0
-0.07190677 -0.11505541 0.0
-0.05867922 -0.11249627 0.0
-0.04582686 -0.10694472 0.0
-0.03373880 -0.09831674 0.0
-0.02283426 -0.08660330 0.0
-0.01355454 -0.07188282 0.0
-0.00635306 -0.05433139 0.0
-0.00168382 -0.03422961 0.0
0.00000000 -0.01382709 0.0
-0.00181699 0.01383035 0.0
-0.00685642 0.03929564 0.0
-0.01459930 0.06205887 0.0
-0.02453691 0.08173866 0.0
-0.03616584 0.09807537 0.0
-0.04900155 0.11092557 0.0
-0.06258973 0.12025202 0.0
-0.07651481 0.12611017 0.0
-0.09040559 0.12863271 0.0
-0.10393799 0.12801323 0.0
-0.11683530 0.12449036 0.0
-0.12886633 0.11833319 0.0
-0.13984206 0.10982876 0.0
-0.14961120 0.09927180 0.0
-0.15805533 0.08695709 0.0
-0.16508384 0.07317420 0.0
-0.17062929 0.05820446 0.0
-0.17464321 0.04231999 0.0
-0.17709271 0.02578425 0.0
-0.17795796 0.00885390 0.0
-0.17723075 -0.00821846 0.0
-0.17491398 -0.02518099 0.0
-0.17102232 -0.04177928 0.0
-0.16558389 -0.05775304 0.0
-0.15864294 -0.07283358 0.0
-0.15026348 -0.08674212 0.0
-0.14053361 -0.09918952 0.0
-0.12957048 -0.10987764 0.0
-0.11752544 -0.11850292 0.0
-0.10458910 -0.12476217 0.0
-0.09099574 -0.12836092 0.0
-0.07702669 -0.12902446 0.0
-0.06301189 -0.12651106 0.0
-0.04932935 -0.12062727 0.0
-0.03640178 -0.11124430 0.0
-0.02469039 -0.09831468 0.0
-0.01468558 -0.08188764 0.0
-0.00689483 -0.06212213 0.0
-0.00182846 -0.03929598 0.0
0.00000000 -0.01582012 0.0
-0.00196713 0.01582421 0.0
-0.00741826 0.04474676 0.0
-0.01576555 0.07040616 0.0
-0.02643779 0.09241089 0.0
-0.03887250 0.11051008 0.0
-0.05253268 0.12458575 0.0
-0.06692030 0.13463964 0.0
-0.08158622 0.14077609 0.0
-0.09613609 0.14318258 0.0
-0.11023263 0.14210977 0.0
-0.12359475 0.13785247 0.0
-0.13599416 0.13073260 0.0
-0.14725022 0.12108482 0.0
-0.15722370 0.10924528 0.0
-0.16581018 0.09554358 0.0
-0.17293349 0.08029751 0.0
-0.17853968 0.06381065 0.0
-0.18259181 0.04637212 0.0
-0.18506570 0.02825814 0.0
-0.18594690 0.00973510 0.0
-0.18522882 -0.00893654 0.0
-0.18291217 -0.02749765 0.0
-0.17900568 -0.04568577 0.0
-0.17352813 -0.06323058 0.0
-0.16651162 -0.07985009 0.0
-0.15800596 -0.09524778 0.0
-0.14808418 -0.10911129 0.0
-0.13684882 -0.12111301 0.0
-0.12443864 -0.13091310 0.0
-0.11103554 -0.13816526 0.0
-0.09687087 -0.14252560 0.0
-0.08223056 -0.14366477 0.0
-0.06745841 -0.14128322 0.0
-0.05295658 -0.13512909 0.0
-0.03918282 -0.12501807 0.0
-0.02664371 -0.11085379 0.0
-0.01588403 -0.09264732 0.0
-0.00747224 -0.07053392 0.0
-0.00198298 -0.04478525 0.0
0.00000000 -0.01798205 0.0
-0.00212796 0.01798708 0.0
-0.00801831 0.05063711 0.0
-0.01700273 0.07939058 0.0
-0.02843804 0.10384620 0.0
-0.04169463 0.12376668 0.0
-0.05617697 0.13906809 0.0