# vtk DataFile Version 4.0
2D velocity field
ASCII
DATASET STRUCTURED_GRID
DIMENSIONS 40 40 1
POINTS 1600 float
0.00000000 0.00000000 1.0
1.00000000 0.00000000 1.0
2.00000000 0.00000000 1.0
3.00000000 0.00000000 1.0
4.00000000 0.00000000 1.0
5.00000000 0.00000000 1.0
6.00000000 0.00000000 1.0
7.00000000 0.00000000 1.0
8.00000000 0.00000000 1.0
9.00000000 0.00000000 1.0
10.00000000 0.00000000 1.0
11.00000000 0.00000000 1.0
12.00000000 0.00000000 1.0
13.00000000 0.00000000 1.0
14.00000000 0.00000000 1.0
15.00000000 0.00000000 1.0
16.00000000 0.00000000 1.0
17.00000000 0.00000000 1.0
18.00000000 0.00000000 1.0
19.00000000 0.00000000 1.0
20.00000000 0.00000000 1.0
21.00000000 0.00000000 1.0
22.00000000 0.00000000 1.0
23.00000000 0.00000000 1.0
24.00000000 0.00000000 1.0
25.00000000 0.00000000 1.0
26.00000000 0.00000000 1.0
27.00000000 0.00000000 1.0
28.00000000 0.00000000 1.0
29.00000000 0.00000000 1.0
30.00000000 0.00000000 1.0
31.00000000 0.00000000 1.0
32.00000000 0.00000000 1.0
33.00000000 0.00000000 1.0
34.00000000 0.00000000 1.0
35.00000000 0.00000000 1.0
36.00000000 0.00000000 1.0
37.00000000 0.00000000 1.0
38.00000000 0.00000000 1.0
39.00000000 0.00000000 1.0
0.00000000 1.00000000 1.0
1.00000000 1.00000000 1.0
2.00000000 1.00000000 1.0
3.00000000 1.00000000 1.0
4.00000000 1.00000000 1.0
5.00000000 1.00000000 1.0
6.00000000 1.00000000 1.0
7.00000000 1.00000000 1.0
8.00000000 1.00000000 1.0
9.00000000 1.00000000 1.0
10.00000000 1.00000000 1.0
11.00000000 1.00000000 1.0
12.00000000 1.00000000 1.0
13.00000000 1.00000000 1.0
14.00000000 1.00000000 1.0
15.00000000 1.00000000 1.0
16.00000000 1.00000000 1.0
17.00000000 1.00000000 1.0
18.00000000 1.00000000 1.0
19.00000000 1.00000000 1.0
20.00000000 1.00000000 1.0
21.00000000 1.00000000 1.0
22.00000000 1.00000000 1.0
23.00000000 1.00000000 1.0
24.00000000 1.00000000 1.0
25.00000000 1.00000000 1.0
26.00000000 1.00000000 1.0
27.00000000 1.00000000 1.0
28.00000000 1.00000000 1.0
29.00000000 1.00000000 1.0
30.00000000 1.00000000 1.0
31.00000000 1.00000000 1.0
32.00000000 1.00000000 1.0
33.00000000 1.00000000 1.0
34.00000000 1.00000000 1.0
35.00000000 1.00000000 1.0
36.00000000 1.00000000 1.0
37.00000000 1.00000000 1.0
38.00000000 1.00000000 1.0
39.00000000 1.00000000 1.0
0.00000000 2.00000000 1.0
1.00000000 2.00000000 1.0
2.00000000 2.00000000 1.0
3.00000000 2.00000000 1.0
4.00000000 2.00000000 1.0
5.00000000 2.00000000 1.0
6.00000000 2.00000000 1.0
7.00000000 2.00000000 1.0
8.00000000 2.00000000 1.0
9.00000000 2.00000000 1.0
10.00000000 2.00000000 1.0
11.00000000 2.00000000 1.0
12.00000000 2.00000000 1.0
13.00000000 2.00000000 1.0
14.00000000 2.00000000 1.0
15.00000000 2.00000000 1.0
16.00000000 2.00000000 1.0
17.00000000 2.00000000 1.0
18.00000000 2.00000000 1.0
19.00000000 2.00000000 1.0
20.00000000 2.00000000 1.0
21.00000000 2.00000000 1.0
22.00000000 2.00000000 1.0
23.00000000 2.00000000 1.0
24.00000000 2.00000000 1.0
25.00000000 2.00000000 1.0
26.00000000 2.00000000 1.0
27.00000000 2.00000000 1.0
28.00000000 2.00000000 1.0
29.00000000 2.00000000 1.0
30.00000000 2.00000000 1.0
31.00000000 2.00000000 1.0
32.00000000 2.00000000 1.0
33.00000000 2.00000000 1.0
34.00000000 2.00000000 1.0
35.00000000 2.00000000 1.0
36.00000000 2.00000000 1.0
37.00000000 2.00000000 1.0
38.00000000 2.00000000 1.0
39.00000000 2.00000000 1.0
0.00000000 3.00000000 1.0
1.00000000 3.00000000 1.0
2.00000000 3.00000000 1.0
3.00000000 3.00000000 1.0
4.00000000 3.00000000 1.0
5.00000000 3.00000000 1.0
6.00000000 3.00000000 1.0
7.00000000 3.00000000 1.0
8.00000000 3.00000000 1.0
9.00000000 3.00000000 1.0
10.00000000 3.00000000 1.0
11.00000000 3.00000000 1.0
12.00000000 3.00000000 1.0
13.00000000 3.00000000 1.0
14.00000000 3.00000000 1.0
15.00000000 3.00000000 1.0
16.00000000 3.00000000 1.0
17.00000000 3.00000000 1.0
18.00000000 3.00000000 1.0
19.00000000 3.00000000 1.0
20.00000000 3.00000000 1.0
21.00000000 3.00000000 1.0
22.00000000 3.00000000 1.0
23.00000000 3.00000000 1.0
24.00000000 3.00000000 1.0
25.00000000 3.00000000 1.0
26.00000000 3.00000000 1.0
27.00000000 3.00000000 1.0
28.00000000 3.00000000 1.0
29.00000000 3.00000000 1.0
30.00000000 3.00000000 1.0
31.00000000 3.00000000 1.0
32.00000000 3.00000000 1.0
33.00000000 3.00000000 1.0
34.00000000 3.00000000 1.0
35.00000000 3.00000000 1.0
36.00000000 3.00000000 1.0
37.00000000 3.00000000 1.0
38.00000000 3.00000000 1.0
39.00000000 3.00000000 1.0
0.00000000 4.00000000 1.0
1.00000000 4.00000000 1.0
2.00000000 4.00000000 1.0
3.00000000 4.00000000 1.0
4.00000000 4.00000000 1.0
5.00000000 4.00000000 1.0
6.00000000 4.00000000 1.0
7.00000000 4.00000000 1.0
8.00000000 4.00000000 1.0
9.00000000 4.00000000 1.0
10.00000000 4.00000000 1.0
11.00000000 4.00000000 1.0
12.00000000 4.00000000 1.0
13.00000000 4.00000000 1.0
14.00000000 4.00000000 1.0
15.00000000 4.00000000 1.0
16.00000000 4.00000000 1.0
17.00000000 4.00000000 1.0
18.00000000 4.00000000 1.0
19.00000000 4.00000000 1.0
20.00000000 4.00000000 1.0
21.00000000 4.00000000 1.0
22.00000000 4.00000000 1.0
23.00000000 4.00000000 1.0
24.00000000 4.00000000 1.0
25.00000000 4.00000000 1.0
26.00000000 4.00000000 1.0
27.00000000 4.00000000 1.0
28.00000000 4.00000000 1.0
29.00000000 4.00000000 1.0
30.00000000 4.00000000 1.0
31.00000000 4.00000000 1.0
32.00000000 4.00000000 1.0
33.00000000 4.00000000 1.0
34.00000000 4.00000000 1.0
35.00000000 4.00000000 1.0
36.00000000 4.00000000 1.0
37.00000000 4.00000000 1.0
38.00000000 4.00000000 1.0
39.00000000 4.00000000 1.0
0.00000000 5.00000000 1.0
1.00000000 5.00000000 1.0
2.00000000 5.00000000 1.0
3.00000000 5.00000000 1.0
4.00000000 5.00000000 1.0
5.00000000 5.00000000 1.0
6.00000000 5.00000000 1.0
7.00000000 5.00000000 1.0
8.00000000 5.00000000 1.0
9.00000000 5.00000000 1.0
10.00000000 5.00000000 1.0
11.00000000 5.00000000 1.0
12.00000000 5.00000000 1.0
13.00000000 5.00000000 1.0
14.00000000 5.00000000 1.0
15.00000000 5.00000000 1.0
16.00000000 5.00000000 1.0
17.00000000 5.00000000 1.0
18.00000000 5.00000000 1.0
19.00000000 5.00000000 1.0
20.00000000 5.00000000 1.0
21.00000000 5.00000000 1.0
22.00000000 5.00000000 1.0
23.00000000 5.00000000 1.0
24.00000000 5.00000000 1.0
25.00000000 5.00000000 1.0
26.00000000 5.00000000 1.0
27.00000000 5.00000000 1.0
28.00000000 5.00000000 1.0
29.00000000 5.00000000 1.0
30.00000000 5.00000000 1.0
31.00000000 5.00000000 1.0
32.00000000 5.00000000 1.0
33.00000000 5.00000000 1.0
34.00000000 5.00000000 1.0
35.00000000 5.00000000 1.0
36.00000000 5.00000000 1.0
37.00000000 5.00000000 1.0
38.00000000 5.00000000 1.0
39.00000000 5.00000000 1.0
0.00000000 6.00000000 1.0
1.00000000 6.00000000 1.0
2.00000000 6.00000000 1.0
3.00000000 6.00000000 1.0
4.00000000 6.00000000 1.0
5.00000000 6.00000000 1.0
6.00000000 6.00000000 1.0
7.00000000 6.00000000 1.0
8.00000000 6.00000000 1.0
9.00000000 6.00000000 1.0
10.00000000 6.00000000 1.0
11.00000000 6.00000000 1.0
12.00000000 6.00000000 1.0
13.00000000 6.00000000 1.0
14.00000000 6.00000000 1.0
15.00000000 6.00000000 1.0
16.00000000 6.00000000 1.0
17.00000000 6.00000000 1.0
18.00000000 6.00000000 1.0
19.00000000 6.00000000 1.0
20.00000000 6.00000000 1.0
21.00000000 6.00000000 1.0
22.00000000 6.00000000 1.0
23.00000000 6.00000000 1.0
24.00000000 6.00000000 1.0
25.00000000 6.00000000 1.0
26.00000000 6.00000000 1.0
27.00000000 6.00000000 1.0
28.00000000 6.00000000 1.0
29.00000000 6.00000000 1.0
30.00000000 6.00000000 1.0
31.00000000 6.00000000 1.0
32.00000000 6.00000000 1.0
33.00000000 6.00000000 1.0
34.00000000 6.00000000 1.0
35.00000000 6.00000000 1.0
36.00000000 6.00000000 1.0
37.00000000 6.00000000 1.0
38.00000000 6.00000000 1.0
39.00000000 6.00000000 1.0
0.00000000 7.00000000 1.0
1.00000000 7.00000000 1.0
2.00000000 7.00000000 1.0
3.00000000 7.00000000 1.0
4.00000000 7.00000000 1.0
5.00000000 7.00000000 1.0
6.00000000 7.00000000 1.0
7.00000000 7.00000000 1.0
8.00000000 7.00000000 1.0
9.00000000 7.00000000 1.0
10.00000000 7.00000000 1.0
11.00000000 7.00000000 1.0
12.00000000 7.00000000 1.0
13.00000000 7.00000000 1.0
14.00000000 7.00000000 1.0
15.00000000 7.00000000 1.0
16.00000000 7.00000000 1.0
17.00000000 7.00000000 1.0
18.00000000 7.00000000 1.0
19.00000000 7.00000000 1.0
20.00000000 7.00000000 1.0
21.00000000 7.00000000 1.0
22.00000000 7.00000000 1.0
23.00000000 7.00000000 1.0
24.00000000 7.00000000 1.0
25.00000000 7.00000000 1.0
26.00000000 7.00000000 1.0
27.00000000 7.00000000 1.0
28.00000000 7.00000000 1.0
29.00000000 7.00000000 1.0
30.00000000 7.00000000 1.0
31.00000000 7.00000000 1.0
32.00000000 7.00000000 1.0
33.00000000 7.00000000 1.0
34.00000000 7.00000000 1.0
35.00000000 7.00000000 1.0
36.00000000 7.00000000 1.0
37.00000000 7.00000000 1.0
38.00000000 7.00000000 1.0
39.00000000 7.00000000 1.0
0.00000000 8.00000000 1.0
1.00000000 8.00000000 1.0
2.00000000 8.00000000 1.0
3.00000000 8.00000000 1.0
4.00000000 8.00000000 1.0
5.00000000 8.00000000 1.0
6.00000000 8.00000000 1.0
7.00000000 8.00000000 1.0
8.00000000 8.00000000 1.0
9.00000000 8.00000000 1.0
10.00000000 8.00000000 1.0
11.00000000 8.00000000 1.0
12.00000000 8.00000000 1.0
13.00000000 8.00000000 1.0
14.00000000 8.00000000 1.0
15.00000000 8.00000000 1.0
16.00000000 8.00000000 1.0
17.00000000 8.00000000 1.0
18.00000000 8.00000000 1.0
19.00000000 8.00000000 1.0
20.00000000 8.00000000 1.0
21.00000000 8.00000000 1.0
22.00000000 8.00000000 1.0
23.00000000 8.00000000 1.0
24.00000000 8.00000000 1.0
25.00000000 8.00000000 1.0
26.00000000 8.00000000 1.0
27.00000000 8.00000000 1.0
28.00000000 8.00000000 1.0
29.00000000 8.00000000 1.0
30.00000000 8.00000000 1.0
31.00000000 8.00000000 1.0
32.00000000 8.00000000 1.0
33.00000000 8.00000000 1.0
34.00000000 8.00000000 1.0
35.00000000 8.00000000 1.0
36.00000000 8.00000000 1.0
37.00000000 8.00000000 1.0
38.00000000 8.00000000 1.0
39.00000000 8.00000000 1.0
0.00000000 9.00000000 1.0
1.00000000 9.00000000 1.0
2.00000000 9.00000000 1.0
3.00000000 9.00000000 1.0
4.00000000 9.00000000 1.0
5.00000000 9.00000000 1.0
6.00000000 9.00000000 1.0
7.00000000 9.00000000 1.0
8.00000000 9.00000000 1.0
[...]
POINT_DATA 1600
VECTORS velocity double
0.00000000 0.00000574 0.0
0.00000029 -0.00000583 0.0
0.00000039 0.00003211 0.0
0.00000043 0.00008881 0.0
0.00000039 0.00014538 0.0
0.00000030 0.00019372 0.0
0.00000016 0.00023119 0.0
0.00000000 0.00025750 0.0
-0.00000017 0.00027334 0.0
-0.00000034 0.00027978 0.0
-0.00000052 0.00027798 0.0
-0.00000068 0.00026911 0.0
-0.00000083 0.00025426 0.0
-0.00000097 0.00023443 0.0
-0.00000110 0.00021050 0.0
-0.00000120 0.00018327 0.0
-0.00000129 0.00015341 0.0
-0.00000136 0.00012152 0.0
-0.00000141 0.00008812 0.0
-0.00000144 0.00005368 0.0
-0.00000145 0.00001863 0.0
-0.00000144 -0.00001664 0.0
-0.00000141 -0.00005173 0.0
-0.00000136 -0.00008624 0.0
-0.00000129 -0.00011973 0.0
-0.00000120 -0.00015175 0.0
-0.00000110 -0.00018174 0.0
-0.00000097 -0.00020911 0.0
-0.00000084 -0.00023317 0.0
-0.00000068 -0.00025311 0.0
-0.00000052 -0.00026804 0.0
-0.00000034 -0.00027695 0.0
-0.00000017 -0.00027875 0.0
0.00000000 -0.00027228 0.0
0.00000016 -0.00025636 0.0
0.00000030 -0.00022994 0.0
0.00000039 -0.00019234 0.0
0.00000043 -0.00014384 0.0
0.00000039 -0.00008713 0.0
0.00000028 -0.00003035 0.0
0.00000000 0.00001138 0.0
0.00006835 -0.00001180 0.0
-0.00004000 0.00016189 0.0
-0.00033056 0.00040158 0.0
-0.00080197 0.00063986 0.0
-0.00143048 0.00084608 0.0
-0.00218330 0.00100846 0.0
-0.00302541 0.00112438 0.0
-0.00392293 0.00119563 0.0
-0.00484475 0.00122603 0.0
-0.00576321 0.00122019 0.0
-0.00665433 0.00118295 0.0
-0.00749768 0.00111897 0.0
-0.00827616 0.00103261 0.0
-0.00897571 0.00092780 0.0
-0.00958495 0.00080806 0.0
-0.01009484 0.00067645 0.0
-0.01049842 0.00053567 0.0
-0.01079051 0.00038807 0.0
-0.01096757 0.00023578 0.0
-0.01102749 0.00008070 0.0
-0.01096952 -0.00007535 0.0
-0.01079430 -0.00023058 0.0
-0.01050381 -0.00038318 0.0
-0.01010152 -0.00053120 0.0
-0.00959253 -0.00067249 0.0
-0.00898377 -0.00080467 0.0
-0.00828426 -0.00092499 0.0
-0.00750541 -0.00103033 0.0
-0.00666135 -0.00111715 0.0
-0.00576926 -0.00118147 0.0
-0.00484970 -0.00121890 0.0
-0.00392676 -0.00122475 0.0
-0.00302824 -0.00119420 0.0
-0.00218537 -0.00112264 0.0
-0.00143210 -0.00100629 0.0
-0.00080351 -0.00084341 0.0
-0.00033239 -0.00063667 0.0
-0.00004238 -0.00039798 0.0
0.00006544 -0.00015823 0.0
0.00000000 -0.00004526 0.0
-0.00001563 0.00004452 0.0
-0.00033114 0.00047739 0.0
-0.00095095 0.00102139 0.0
-0.00186712 0.00155603 0.0
-0.00304269 0.00202166 0.0
-0.00442632 0.00239208 0.0
-0.00596134 0.00265940 0.0
-0.00759127 0.00282556 0.0
-0.00926294 0.00289769 0.0
-0.01092813 0.00288538 0.0
-0.01254434 0.00279916 0.0
-0.01407492 0.00264954 0.0
-0.01548885 0.00244654 0.0
-0.01676039 0.00219934 0.0
-0.01786853 0.00191620 0.0
-0.01879652 0.00160444 0.0
-0.01953136 0.00127050 0.0
-0.02006337 0.00092009 0.0
-0.02038588 0.00055828 0.0
-0.02049493 0.00018975 0.0
-0.02038915 -0.00018112 0.0
-0.02006972 -0.00055001 0.0
-0.01954041 -0.00091249 0.0
-0.01880775 -0.00126386 0.0
-0.01788130 -0.00159895 0.0
-0.01677398 -0.00191198 0.0
-0.01550256 -0.00219642 0.0
-0.01408806 -0.00244483 0.0
-0.01255634 -0.00264886 0.0
-0.01093857 -0.00279924 0.0
-0.00927158 -0.00288589 0.0
-0.00759808 -0.00289825 0.0
-0.00596648 -0.00282580 0.0
-0.00443013 -0.00265899 0.0
-0.00304564 -0.00239077 0.0
-0.00186971 -0.00201933 0.0
-0.00095363 -0.00155275 0.0
-0.00033413 -0.00101748 0.0
-0.00001875 -0.00047360 0.0
0.00000000 -0.00021611 0.0
-0.00013156 0.00021529 0.0
-0.00069373 0.00103955 0.0
-0.00165855 0.00198620 0.0
-0.00300130 0.00289878 0.0
-0.00467207 0.00369242 0.0
-0.00660613 0.00432614 0.0
-0.00873218 0.00478545 0.0
-0.01097825 0.00507163 0.0
-0.01327555 0.00519498 0.0
-0.01556082 0.00517065 0.0
-0.01777760 0.00501593 0.0
-0.01987667 0.00474861 0.0
-0.02181601 0.00438589 0.0
-0.02356048 0.00394380 0.0
-0.02508120 0.00343692 0.0
-0.02635504 0.00287828 0.0
-0.02736397 0.00227943 0.0
-0.02809453 0.00165065 0.0
-0.02853739 0.00100115 0.0
-0.02868705 0.00033941 0.0
-0.02854160 -0.00032657 0.0
-0.02810270 -0.00098891 0.0
-0.02737563 -0.00163956 0.0
-0.02636951 -0.00226997 0.0
-0.02509766 -0.00287079 0.0
-0.02357803 -0.00343162 0.0
-0.02183374 -0.00394071 0.0
-0.01989369 -0.00438487 0.0
-0.01779320 -0.00474936 0.0
-0.01557444 -0.00501799 0.0
-0.01328687 -0.00517345 0.0
-0.01098721 -0.00519791 0.0
-0.00873896 -0.00507405 0.0
-0.00661111 -0.00478683 0.0
-0.00467580 -0.00432608 0.0
-0.00300435 -0.00369078 0.0
-0.00166141 -0.00289569 0.0
-0.00069665 -0.00198223 0.0
-0.00013449 -0.00103576 0.0
0.00000000 -0.00049600 0.0
-0.00024239 0.00049525 0.0
-0.00105053 0.00184768 0.0
-0.00235362 0.00328929 0.0
-0.00410196 0.00464712 0.0
-0.00622935 0.00581980 0.0
-0.00865809 0.00675488 0.0
-0.01130490 0.00743225 0.0
-0.01408595 0.00785268 0.0
-0.01692080 0.00802982 0.0
-0.01973490 0.00798475 0.0
-0.02246120 0.00774223 0.0
-0.02504082 0.00732823 0.0
-0.02742317 0.00676824 0.0
-0.02956567 0.00608630 0.0
-0.03143320 0.00530446 0.0
-0.03299751 0.00444258 0.0
-0.03423649 0.00351841 0.0
-0.03513362 0.00254777 0.0
-0.03567743 0.00154496 0.0
-0.03586113 0.00052311 0.0
-0.03568240 -0.00050530 0.0
-0.03514327 -0.00152804 0.0
-0.03425027 -0.00253257 0.0
-0.03301462 -0.00350562 0.0
-0.03145267 -0.00443273 0.0
-0.02958644 -0.00529785 0.0
-0.02744415 -0.00608299 0.0
-0.02506100 -0.00676802 0.0
-0.02247969 -0.00733066 0.0
-0.01975105 -0.00774664 0.0
-0.01693420 -0.00799029 0.0
-0.01409652 -0.00803559 0.0
-0.01131280 -0.00785776 0.0
-0.00866377 -0.00743586 0.0
-0.00623339 -0.00675646 0.0
-0.00410503 -0.00581914 0.0
-0.00235628 -0.00464443 0.0
-0.00105317 -0.00328535 0.0
-0.00024511 -0.00184381 0.0
0.00000000 -0.00087100 0.0
-0.00033908 0.00087041 0.0
-0.00137501 0.00288360 0.0
-0.00299666 0.00491094 0.0
-0.00512637 0.00677682 0.0
-0.00767877 0.00837220 0.0
-0.01056192 0.00963803 0.0
-0.01368079 0.01055111 0.0
-0.01694109 0.01111298 0.0
-0.02025265 0.01134138 0.0
-0.02353188 0.01126398 0.0
-0.02670335 0.01091370 0.0
-0.02970060 0.01032547 0.0
-0.03246631 0.00953395 0.0
-0.03495210 0.00857209 0.0
-0.03711796 0.00747032 0.0
-0.03893161 0.00625623 0.0
-0.04036778 0.00495458 0.0
-0.04140754 0.00358753 0.0
-0.04203774 0.00217517 0.0
-0.04225062 0.00073599 0.0
-0.04204349 -0.00071244 0.0
-0.04141869 -0.00215284 0.0
-0.04038370 -0.00356756 0.0
-0.03895139 -0.00493793 0.0
-0.03714048 -0.00624364 0.0
-0.03497613 -0.00746220 0.0
-0.03249060 -0.00856852 0.0
-0.02972395 -0.00953467 0.0
-0.02672475 -0.01032986 0.0
-0.02355053 -0.01092085 0.0
-0.02026808 -0.01127275 0.0
-0.01695314 -0.01135052 0.0
-0.01368965 -0.01112125 0.0
-0.01056807 -0.01055744 0.0
-0.00768288 -0.00964165 0.0
-0.00512921 -0.00837280 0.0
-0.00299896 -0.00677468 0.0
-0.00137730 -0.00490700 0.0
-0.00034164 -0.00287947 0.0
0.00000000 -0.00132749 0.0
-0.00042181 0.00132713 0.0
-0.00166354 0.00412533 0.0
-0.00358048 0.00682788 0.0
-0.00606777 0.00926411 0.0
-0.00901960 0.01132402 0.0
-0.01232837 0.01294680 0.0
-0.01588659 0.01410932 0.0
-0.01958952 0.01481590 0.0
-0.02333792 0.01508978 0.0
-0.02704017 0.01496624 0.0
-0.03061375 0.01448728 0.0
-0.03398593 0.01369765 0.0
-0.03709400 0.01264201 0.0
-0.03988497 0.01136305 0.0
-0.04231503 0.00990038 0.0
-0.04434883 0.00829003 0.0
-0.04595869 0.00656443 0.0
-0.04712389 0.00475273 0.0
-0.04783005 0.00288132 0.0
-0.04806864 0.00097458 0.0
-0.04783673 -0.00094435 0.0
-0.04713687 -0.00285269 0.0
-0.04597723 -0.00472720 0.0
-0.04437187 -0.00654329 0.0
-0.04234129 -0.00827422 0.0
-0.03991302 -0.00989047 0.0
-0.03712237 -0.01135916 0.0
-0.03401324 -0.01264380 0.0
-0.03063878 -0.01370432 0.0
-0.02706198 -0.01449765 0.0
-0.02335590 -0.01497883 0.0
-0.01960347 -0.01510295 0.0
-0.01589669 -0.01482803 0.0
-0.01233514 -0.01411898 0.0
-0.00902382 -0.01295296 0.0
-0.00607039 -0.01132623 0.0
-0.00358241 -0.00926266 0.0
-0.00166551 -0.00682390 0.0
-0.00042421 -0.00412076 0.0
0.00000000 -0.00185491 0.0
-0.00049351 0.00185481 0.0
-0.00192211 0.00555393 0.0
-0.00411403 0.00901979 0.0
-0.00693959 0.01208967 0.0
-0.01027243 0.01465685 0.0
-0.01398833 0.01666271 0.0
-0.01796632 0.01808730 0.0
-0.02209058 0.01894016 0.0
-0.02625264 0.01925183 0.0
-0.03035309 0.01906668 0.0
-0.03430282 0.01843700 0.0
-0.03802360 0.01741843 0.0
-0.04144816 0.01606657 0.0
-0.04451980 0.01443469 0.0
-0.04719174 0.01257232 0.0
-0.04942631 0.01052461 0.0
-0.05119412 0.00833223 0.0
-0.05247316 0.00603177 0.0
-0.05324821 0.00365637 0.0
-0.05351025 0.00123662 0.0
-0.05325615 -0.00119844 0.0
-0.05248859 -0.00362025 0.0
-0.05121617 -0.00599963 0.0
-0.04945377 -0.00830569 0.0
-0.04722308 -0.01050491 0.0
-0.04455334 -0.01256020 0.0
-0.04148218 -0.01443033 0.0
-0.03805642 -0.01606955 0.0
-0.03433297 -0.01742777 0.0
-0.03037941 -0.01845120 0.0
-0.02627437 -0.01908386 0.0
-0.02210741 -0.01926991 0.0
-0.01797841 -0.01895703 0.0
-0.01399627 -0.01810111 0.0
-0.01027714 -0.01667209 0.0
-0.00694221 -0.01466116 0.0
-0.00411570 -0.01208916 0.0
-0.00192381 -0.00901579 0.0
-0.00049579 -0.00554878 0.0
0.00000000 -0.00244636 0.0
-0.00055776 0.00244654 0.0
-0.00216031 0.00715648 0.0
-0.00461361 0.01147308 0.0
-0.00776562 0.01524168 0.0
-0.01146982 0.01836105 0.0
-0.01558468 0.02077757 0.0
-0.01997473 0.02247735 0.0
-0.02451215 0.02347758 0.0
-0.02907857 0.02381825 0.0
-0.03356653 0.02355464 0.0
-0.03788040 0.02275086 0.0
-0.04193673 0.02147476 0.0
-0.04566420 0.01979403 0.0
-0.04900298 0.01777347 0.0
-0.05190400 0.01547334 0.0
-0.05432792 0.01294853 0.0
-0.05624417 0.01024848 0.0
-0.05762998 0.00741759 0.0
-0.05846964 0.00449603 0.0
-0.05875383 0.00152081 0.0
-0.05847931 -0.00147296 0.0
-0.05764879 -0.00445077 0.0
-0.05627108 -0.00737733 0.0
-0.05436148 -0.01021529 0.0
-0.05194241 -0.01292398 0.0
-0.04904422 -0.01545839 0.0
-0.04570617 -0.01776838 0.0
-0.04197740 -0.01979832 0.0
-0.03791794 -0.02148722 0.0
-0.03359950 -0.02276965 0.0
-0.02910595 -0.02357741 0.0
-0.02453348 -0.02384237 0.0
-0.01999013 -0.02350038 0.0
-0.01559480 -0.02249644 0.0
-0.01147573 -0.02079115 0.0
-0.00776870 -0.01836818 0.0
-0.00461530 -0.01524256 0.0
-0.00216187 -0.01146921 0.0
-0.00055995 -0.00715070 0.0
0.00000000 -0.00309846 0.0
-0.00061808 0.00309894 0.0
-0.00238873 0.00892712 0.0
-0.00509840 0.01418275 0.0
-0.00857443 0.01871770 0.0
-0.01265037 0.02243698 0.0
-0.01716674 0.02529394 0.0
-0.02197249 0.02728309 0.0
-0.02692670 0.02843177 0.0
-0.03190021 0.02879176 0.0
-0.03677690 0.02843133 0.0
-0.04145435 0.02742831 0.0
-0.04584396 0.02586437 0.0
-0.04987058 0.02382066 0.0
-0.05347175 0.02137464 0.0
-0.05659659 0.01859818 0.0
-0.05920466 0.01555660 0.0
-0.06126476 0.01230858 0.0
-0.06275381 0.00890663 0.0
-0.06365592 0.00539814 0.0
-0.06396173 0.00182662 0.0
-0.06366794 -0.00176675 0.0
-0.06277721 -0.00534150 0.0
-0.06129831 -0.00885623 0.0
-0.05924660 -0.01226700 0.0
-0.05664473 -0.01552585 0.0
-0.05352364 -0.01857948 0.0
-0.04992364 -0.02136838 0.0
-0.04589566 -0.02382629 0.0
-0.04150242 -0.02588046 0.0
-0.03681945 -0.02745261 0.0
-0.03193591 -0.02846095 0.0
-0.02695486 -0.02882342 0.0
-0.02199313 -0.02846211 0.0
-0.01718053 -0.02730903 0.0
-0.01265857 -0.02531311 0.0
-0.00857870 -0.02244804 0.0
-0.00510054 -0.01872071 0.0
-0.00239034 -0.01417940 0.0
-0.00062024 -0.00892080 0.0
0.00000000 -0.00381116 0.0
-0.00067772 0.00381196 0.0
-0.00261789 0.01086729 0.0
-0.00558833 0.01715318 0.0
-0.00939632 0.02252568 0.0
-0.01385526 0.02689591 0.0
-0.01878677 0.03022546 0.0
-0.02402298 0.03251929 0.0
-0.02940858 0.03381737 0.0
-0.03480256 0.03418574 0.0
-0.04007936 0.03370813 0.0
-0.04512933 0.03247827 0.0
-0.04985860 0.03059364 0.0
-0.05418841 0.02815045 0.0
-0.05805395 0.02524017 0.0
-0.06140307 0.02194730 0.0
-0.06419478 0.01834831 0.0
-0.06639776 0.01451156 0.0
-0.06798909 0.01049796 0.0
-0.06895311 0.00636215 0.0
-0.06928059 0.00215410 0.0
-0.06896826 -0.00207908 0.0
-0.06801862 -0.00629113 0.0
-0.06644017 -0.01043468 0.0
-0.06424793 -0.01445925 0.0
-0.06146430 -0.01830947 0.0
-0.05812023 -0.02192355 0.0
-0.05425656 -0.02523205 0.0
-0.04992546 -0.02815738 0.0
-0.04519199 -0.03061393 0.0
-0.04013537 -0.03250922 0.0
-0.03485013 -0.03374619 0.0
-0.02944668 -0.03422686 0.0
-0.02405146 -0.03385732 0.0
-0.01880631 -0.03255418 0.0
-0.01386728 -0.03025213 0.0
-0.00940280 -0.02691251 0.0
-0.00559150 -0.02253201 0.0
-0.00261984 -0.01715106 0.0
-0.00067991 -0.01086072 0.0
0.00000000 -0.00458741 0.0
-0.00073968 0.00458856 0.0
-0.00285797 0.01298558 0.0
-0.00610316 0.02039837 0.0
-0.01026195 0.02668447 0.0
-0.01512647 0.03176044 0.0
-0.02049804 0.03559702 0.0
-0.02619036 0.03821161 0.0
-0.03203227 0.03965927 0.0
-0.03786966 0.04002313 0.0
-0.04356665 0.03940511 0.0
-0.04900585 0.03791747 0.0
-0.05408798 0.03567577 0.0
-0.05873080 0.03279327 0.0
-0.06286760 0.02937697 0.0
-0.06644548 0.02552518 0.0
-0.06942348 0.02132631 0.0
-0.07177080 0.01685888 0.0
-0.07346518 0.01219234 0.0
-0.07449158 0.00738855 0.0
-0.07484119 0.00250370 0.0
-0.07451081 -0.00240946 0.0
-0.07350270 -0.00729924 0.0
-0.07182480 -0.01211258 0.0
-0.06949134 -0.01679270 0.0
-0.06652394 -0.02127687 0.0
-0.06295293 -0.02549455 0.0
-0.05881903 -0.02936595 0.0
-0.05417513 -0.03280127 0.0
-0.04908822 -0.03570085 0.0
-0.04364104 -0.03795639 0.0
-0.03793364 -0.03945359 0.0
-0.03208434 -0.04007616 0.0
-0.02623008 -0.03971158 0.0
-0.02052603 -0.03825822 0.0
-0.01514433 -0.03563383 0.0
-0.01027202 -0.03178482 0.0
-0.00610818 -0.02669584 0.0
-0.00286061 -0.02039862 0.0
-0.00074201 -0.01297932 0.0
0.00000000 -0.00543303 0.0
-0.00080677 0.00543454 0.0
-0.00311877 0.01529757 0.0
-0.00666241 0.02394201 0.0
-0.01120191 0.03122396 0.0
-0.01650615 0.03706467 0.0
-0.02235399 0.04144485 0.0
-0.02853872 0.04439633 0.0
-0.03487151 0.04599206 0.0
-0.04118377 0.04633539 0.0
-0.04732833 0.04554966 0.0
-0.05317958 0.04376872 0.0
-0.05863274 0.04112893 0.0
-0.06360237 0.03776289 0.0
-0.06802037 0.03379498 0.0
-0.07183378 0.02933859 0.0
-0.07500243 0.02449495 0.0
-0.07749672 0.01935317 0.0
-0.07929570 0.01399133 0.0
-0.08038545 0.00847830 0.0
-0.08075784 0.00287610 0.0
-0.08040988 -0.00275742 0.0
-0.07934343 -0.00836568 0.0
-0.07756554 -0.01389048 0.0
-0.07508916 -0.01926908 0.0
-0.07193443 -0.02443159 0.0
-0.06813035 -0.02929864 0.0
-0.06371672 -0.03377958 0.0
-0.05874647 -0.03777152 0.0
-0.05328796 -0.04115937 0.0
-0.04742719 -0.04381716 0.0
-0.04126984 -0.04561093 0.0
-0.03494262 -0.04640337 0.0
-0.02859399 -0.04606020 0.0
-0.02239392 -0.04445830 0.0
-0.01653246 -0.04149528 0.0
-0.01121734 -0.03709993 0.0
-0.00667033 -0.03124285 0.0
-0.00312261 -0.02394634 0.0
-0.00080937 -0.01529256 0.0
0.00000000 -0.00635658 0.0
-0.00088170 0.00635848 0.0
-0.00340999 0.01782585 0.0
-0.00728551 0.02781752 0.0
-0.01224688 0.03618533 0.0
-0.01803661 0.04285439 0.0
-0.02440816 0.04781640 0.0
-0.03113182 0.05111998 0.0
-0.03799895 0.05285919 0.0
-0.04482490 0.05316133 0.0
-0.05145023 0.05217498 0.0
-0.05774070 0.05005919 0.0
-0.06358613 0.04697436 0.0
-0.06889835 0.04307511 0.0
-0.07360864 0.03850527 0.0
-0.07766487 0.03339481 0.0
-0.08102861 0.02785868 0.0
-0.08367240 0.02199696 0.0
-0.08557739 0.01589631 0.0
-0.08673133 0.00963224 0.0
-0.08712720 0.00327196 0.0
-0.08676227 -0.00312235 0.0
-0.08563790 -0.00949005 0.0
-0.08375983 -0.01576855 0.0
-0.08113910 -0.02188981 0.0
-0.07779357 -0.02777713 0.0
-0.07374990 -0.03334230 0.0
-0.06904605 -0.03848342 0.0
-0.06373401 -0.04308356 0.0
-0.05788273 -0.04701065 0.0
-0.05158100 -0.05011888 0.0
-0.04494003 -0.05225190 0.0
-0.03809538 -0.05324802 0.0
-0.03120806 -0.05294752 0.0
-0.02446442 -0.05120194 0.0
-0.01807468 -0.04788501 0.0
-0.01226995 -0.04290465 0.0
-0.00729768 -0.03621511 0.0
-0.00341565 -0.02782836 0.0
-0.00088474 -0.01782346 0.0
0.00000000 -0.00736942 0.0
-0.00096722 0.00737174 0.0
-0.00374146 0.02060008 0.0
-0.00799226 0.03206831 0.0
-0.01342809 0.04162116 0.0
-0.01976077 0.04918707 0.0
-0.02671451 0.05477013 0.0
-0.03403325 0.05843872 0.0
-0.04148606 0.06031201 0.0
-0.04887048 0.06054574 0.0
-0.05601384 0.05931834 0.0
-0.06277307 0.05681841 0.0
-0.06903292 0.05323420 0.0
-0.07470329 0.04874548 0.0
-0.07971593 0.04351791 0.0
-0.08402080 0.03769968 0.0
-0.08758248 0.03142036 0.0
-0.09037681 0.02479129 0.0
-0.09238799 0.01790750 0.0
-0.09360625 0.01085050 0.0
-0.09402607 0.00369178 0.0
-0.09364519 -0.00350323 0.0
-0.09246424 -0.01067100 0.0
-0.09048718 -0.01774561 0.0
-0.08772235 -0.02465463 0.0
-0.08418431 -0.03131517 0.0
-0.07989620 -0.03763041 0.0
-0.07489279 -0.04348683 0.0
-0.06922386 -0.04875249 0.0
-0.06295784 -0.05327666 0.0
-0.05618548 -0.05689124 0.0
-0.04902315 -0.05941422 0.0
-0.04161552 -0.06065564 0.0
-0.03413713 -0.06042590 0.0
-0.02679255 -0.05854651 0.0
-0.01981478 -0.05486278 0.0
-0.01346169 -0.04925773 0.0
-0.00801042 -0.04166638 0.0
-0.00374976 -0.03208901 0.0
-0.00097092 -0.02060230 0.0
0.00000000 -0.00848585 0.0
-0.00106621 0.00848864 0.0
-0.00412350 0.02365737 0.0
-0.00880334 0.03674814 0.0
-0.01477795 0.04759577 0.0
-0.02172277 0.05613188 0.0
-0.02932777 0.06237512 0.0
-0.03730655 0.06641750 0.0
-0.04540292 0.06840837 0.0
-0.05339473 0.06853754 0.0
-0.06109529 0.06701890 0.0
-0.06835269 0.06407581 0.0
-0.07504740 0.05992891 0.0
-0.08108867 0.05478675 0.0
-0.08641027 0.04883950 0.0
-0.09096590 0.04225532 0.0
-0.09472481 0.03517926 0.0
-0.09766761 0.02773409 0.0
-0.09978284 0.02002273 0.0
-0.10106407 0.01213173 0.0
-0.10150789 0.00413560 0.0
-0.10111265 -0.00389847 0.0
-0.09987808 -0.01190556 0.0
-0.09780575 -0.01981793 0.0
-0.09490036 -0.02756002 0.0
-0.09117185 -0.03504368 0.0
-0.08663833 -0.04216393 0.0
-0.08132969 -0.04879547 0.0
-0.07529175 -0.05479042 0.0
-0.06859084 -0.05997757 0.0
-0.06131834 -0.06416373 0.0
-0.05359506 -0.06713750 0.0
-0.04557470 -0.06867600 0.0
-0.03744621 -0.06855438 0.0
-0.02943432 -0.06655840 0.0
-0.02179788 -0.06249921 0.0
-0.01482569 -0.05622991 0.0
-0.00882968 -0.04766239 0.0
-0.00413548 -0.03678320 0.0
-0.00107084 -0.02366693 0.0
0.00000000 -0.00972337 0.0
-0.00118179 0.00972668 0.0
-0.00456724 0.02704281 0.0
-0.00974081 0.04192170 0.0
-0.01633060 0.05418555 0.0
-0.02396839 0.06376967 0.0
-0.03230373 0.07071045 0.0
-0.04101504 0.07512881 0.0
-0.04981748 0.07721081 0.0
-0.05846732 0.07718737 0.0
-0.06676325 0.07531483 0.0
-0.07454506 0.07185762 0.0
-0.08169022 0.06707407 0.0
-0.08810920 0.06120572 0.0
-0.09373992 0.05447022 0.0
-0.09854210 0.04705750 0.0
-0.10249172 0.03912887 0.0
-0.10557606 0.03081843 0.0
-0.10778949 0.02223616 0.0
-0.10913008 0.01347232 0.0
-0.10959721 0.00460272 0.0
-0.10919006 -0.00430562 0.0
-0.10790723 -0.01318839 0.0
-0.10574718 -0.02197798 0.0
-0.10270979 -0.03059741 0.0
-0.09879885 -0.03895462 0.0
-0.09402550 -0.04693727 0.0
-0.08841257 -0.05440839 0.0
-0.08199967 -0.06120332 0.0
-0.07484876 -0.06712848 0.0
-0.06704998 -0.07196251 0.0
-0.05872716 -0.07546032 0.0
-0.05004258 -0.07736057 0.0
-0.04120022 -0.07739674 0.0
-0.03244695 -0.07531166 0.0
-0.02407095 -0.07087520 0.0
-0.01639696 -0.06390390 0.0
-0.00977807 -0.05428127 0.0
-0.00458421 -0.04197706 0.0
-0.00118771 -0.02706342 0.0
0.00000000 -0.01110311 0.0
-0.00131744 0.01110701 0.0
-0.00508490 0.03081026 0.0
-0.01082855 0.04766534 0.0
-0.01812233 0.06147933 0.0
-0.02654529 0.07219262 0.0
-0.03569895 0.07986410 0.0
-0.04522086 0.08465071 0.0
-0.05479383 0.08678377 0.0
-0.06415075 0.08654429 0.0
-0.07307553 0.08423961 0.0
-0.08140080 0.08018287 0.0
-0.08900313 0.07467640 0.0
-0.09579686 0.06799945 0.0
-0.10172697 0.06040033 0.0
-0.10676203 0.05209256 0.0
-0.11088744 0.04325428 0.0
-0.11409942 0.03403041 0.0
-0.11640002 0.02453676 0.0
-0.11779318 0.01486547 0.0
-0.11828184 0.00509138 0.0
-0.11786635 -0.00472111 0.0
-0.11654384 -0.01451090 0.0
-0.11430887 -0.02421296 0.0
-0.11115513 -0.03375115 0.0
-0.10707836 -0.04303139 0.0
-0.10208040 -0.05193523 0.0
-0.09617430 -0.06031448 0.0
-0.08939049 -0.06798714 0.0
-0.08178359 -0.07473538 0.0
-0.07343974 -0.08030635 0.0
-0.06448367 -0.08441637 0.0
-0.05508504 -0.08675920 0.0
-0.04546304 -0.08701874 0.0
-0.03588856 -0.08488614 0.0
-0.02668296 -0.08008080 0.0
-0.01821279 -0.07237406 0.0
-0.01088012 -0.06161392 0.0
-0.00510850 -0.04774867 0.0
-0.00132512 -0.03084680 0.0
0.00000000 -0.01265023 0.0
-0.00147712 0.01265481 0.0
-0.00569005 0.03502318 0.0
-0.01209255 0.05406783 0.0
-0.02019173 0.06957851 0.0
-0.02950263 0.08150352 0.0
-0.03956967 0.08993113 0.0