# vtk DataFile Version 4.0
2D velocity field
ASCII
DATASET STRUCTURED_GRID
DIMENSIONS 40 40 1
POINTS 1600 float
0.00000000 0.00000000 1.0
1.00000000 0.00000000 1.0
2.00000000 0.00000000 1.0
3.00000000 0.00000000 1.0
4.00000000 0.00000000 1.0
5.00000000 0.00000000 1.0
6.00000000 0.00000000 1.0
7.00000000 0.00000000 1.0
8.00000000 0.00000000 1.0
9.00000000 0.00000000 1.0
10.00000000 0.00000000 1.0
11.00000000 0.00000000 1.0
12.00000000 0.00000000 1.0
13.00000000 0.00000000 1.0
14.00000000 0.00000000 1.0
15.00000000 0.00000000 1.0
16.00000000 0.00000000 1.0
17.00000000 0.00000000 1.0
18.00000000 0.00000000 1.0
19.00000000 0.00000000 1.0
20.00000000 0.00000000 1.0
21.00000000 0.00000000 1.0
22.00000000 0.00000000 1.0
23.00000000 0.00000000 1.0
24.00000000 0.00000000 1.0
25.00000000 0.00000000 1.0
26.00000000 0.00000000 1.0
27.00000000 0.00000000 1.0
28.00000000 0.00000000 1.0
29.00000000 0.00000000 1.0
30.00000000 0.00000000 1.0
31.00000000 0.00000000 1.0
32.00000000 0.00000000 1.0
33.00000000 0.00000000 1.0
34.00000000 0.00000000 1.0
35.00000000 0.00000000 1.0
36.00000000 0.00000000 1.0
37.00000000 0.00000000 1.0
38.00000000 0.00000000 1.0
39.00000000 0.00000000 1.0
0.00000000 1.00000000 1.0
1.00000000 1.00000000 1.0
2.00000000 1.00000000 1.0
3.00000000 1.00000000 1.0
4.00000000 1.00000000 1.0
5.00000000 1.00000000 1.0
6.00000000 1.00000000 1.0
7.00000000 1.00000000 1.0
8.00000000 1.00000000 1.0
9.00000000 1.00000000 1.0
10.00000000 1.00000000 1.0
11.00000000 1.00000000 1.0
12.00000000 1.00000000 1.0
13.00000000 1.00000000 1.0
14.00000000 1.00000000 1.0
15.00000000 1.00000000 1.0
16.00000000 1.00000000 1.0
17.00000000 1.00000000 1.0
18.00000000 1.00000000 1.0
19.00000000 1.00000000 1.0
20.00000000 1.00000000 1.0
21.00000000 1.00000000 1.0
22.00000000 1.00000000 1.0
23.00000000 1.00000000 1.0
24.00000000 1.00000000 1.0
25.00000000 1.00000000 1.0
26.00000000 1.00000000 1.0
27.00000000 1.00000000 1.0
28.00000000 1.00000000 1.0
29.00000000 1.00000000 1.0
30.00000000 1.00000000 1.0
31.00000000 1.00000000 1.0
32.00000000 1.00000000 1.0
33.00000000 1.00000000 1.0
34.00000000 1.00000000 1.0
35.00000000 1.00000000 1.0
36.00000000 1.00000000 1.0
37.00000000 1.00000000 1.0
38.00000000 1.00000000 1.0
39.00000000 1.00000000 1.0
0.00000000 2.00000000 1.0
1.00000000 2.00000000 1.0
2.00000000 2.00000000 1.0
3.00000000 2.00000000 1.0
4.00000000 2.00000000 1.0
5.00000000 2.00000000 1.0
6.00000000 2.00000000 1.0
7.00000000 2.00000000 1.0
8.00000000 2.00000000 1.0
9.00000000 2.00000000 1.0
10.00000000 2.00000000 1.0
11.00000000 2.00000000 1.0
12.00000000 2.00000000 1.0
13.00000000 2.00000000 1.0
14.00000000 2.00000000 1.0
15.00000000 2.00000000 1.0
16.00000000 2.00000000 1.0
17.00000000 2.00000000 1.0
18.00000000 2.00000000 1.0
19.00000000 2.00000000 1.0
20.00000000 2.00000000 1.0
21.00000000 2.00000000 1.0
22.00000000 2.00000000 1.0
23.00000000 2.00000000 1.0
24.00000000 2.00000000 1.0
25.00000000 2.00000000 1.0
26.00000000 2.00000000 1.0
27.00000000 2.00000000 1.0
28.00000000 2.00000000 1.0
29.00000000 2.00000000 1.0
30.00000000 2.00000000 1.0
31.00000000 2.00000000 1.0
32.00000000 2.00000000 1.0
33.00000000 2.00000000 1.0
34.00000000 2.00000000 1.0
35.00000000 2.00000000 1.0
36.00000000 2.00000000 1.0
37.00000000 2.00000000 1.0
38.00000000 2.00000000 1.0
39.00000000 2.00000000 1.0
0.00000000 3.00000000 1.0
1.00000000 3.00000000 1.0
2.00000000 3.00000000 1.0
3.00000000 3.00000000 1.0
4.00000000 3.00000000 1.0
5.00000000 3.00000000 1.0
6.00000000 3.00000000 1.0
7.00000000 3.00000000 1.0
8.00000000 3.00000000 1.0
9.00000000 3.00000000 1.0
10.00000000 3.00000000 1.0
11.00000000 3.00000000 1.0
12.00000000 3.00000000 1.0
13.00000000 3.00000000 1.0
14.00000000 3.00000000 1.0
15.00000000 3.00000000 1.0
16.00000000 3.00000000 1.0
17.00000000 3.00000000 1.0
18.00000000 3.00000000 1.0
19.00000000 3.00000000 1.0
20.00000000 3.00000000 1.0
21.00000000 3.00000000 1.0
22.00000000 3.00000000 1.0
23.00000000 3.00000000 1.0
24.00000000 3.00000000 1.0
25.00000000 3.00000000 1.0
26.00000000 3.00000000 1.0
27.00000000 3.00000000 1.0
28.00000000 3.00000000 1.0
29.00000000 3.00000000 1.0
30.00000000 3.00000000 1.0
31.00000000 3.00000000 1.0
32.00000000 3.00000000 1.0
33.00000000 3.00000000 1.0
34.00000000 3.00000000 1.0
35.00000000 3.00000000 1.0
36.00000000 3.00000000 1.0
37.00000000 3.00000000 1.0
38.00000000 3.00000000 1.0
39.00000000 3.00000000 1.0
0.00000000 4.00000000 1.0
1.00000000 4.00000000 1.0
2.00000000 4.00000000 1.0
3.00000000 4.00000000 1.0
4.00000000 4.00000000 1.0
5.00000000 4.00000000 1.0
6.00000000 4.00000000 1.0
7.00000000 4.00000000 1.0
8.00000000 4.00000000 1.0
9.00000000 4.00000000 1.0
10.00000000 4.00000000 1.0
11.00000000 4.00000000 1.0
12.00000000 4.00000000 1.0
13.00000000 4.00000000 1.0
14.00000000 4.00000000 1.0
15.00000000 4.00000000 1.0
16.00000000 4.00000000 1.0
17.00000000 4.00000000 1.0
18.00000000 4.00000000 1.0
19.00000000 4.00000000 1.0
20.00000000 4.00000000 1.0
21.00000000 4.00000000 1.0
22.00000000 4.00000000 1.0
23.00000000 4.00000000 1.0
24.00000000 4.00000000 1.0
25.00000000 4.00000000 1.0
26.00000000 4.00000000 1.0
27.00000000 4.00000000 1.0
28.00000000 4.00000000 1.0
29.00000000 4.00000000 1.0
30.00000000 4.00000000 1.0
31.00000000 4.00000000 1.0
32.00000000 4.00000000 1.0
33.00000000 4.00000000 1.0
34.00000000 4.00000000 1.0
35.00000000 4.00000000 1.0
36.00000000 4.00000000 1.0
37.00000000 4.00000000 1.0
38.00000000 4.00000000 1.0
39.00000000 4.00000000 1.0
0.00000000 5.00000000 1.0
1.00000000 5.00000000 1.0
2.00000000 5.00000000 1.0
3.00000000 5.00000000 1.0
4.00000000 5.00000000 1.0
5.00000000 5.00000000 1.0
6.00000000 5.00000000 1.0
7.00000000 5.00000000 1.0
8.00000000 5.00000000 1.0
9.00000000 5.00000000 1.0
10.00000000 5.00000000 1.0
11.00000000 5.00000000 1.0
12.00000000 5.00000000 1.0
13.00000000 5.00000000 1.0
14.00000000 5.00000000 1.0
15.00000000 5.00000000 1.0
16.00000000 5.00000000 1.0
17.00000000 5.00000000 1.0
18.00000000 5.00000000 1.0
19.00000000 5.00000000 1.0
20.00000000 5.00000000 1.0
21.00000000 5.00000000 1.0
22.00000000 5.00000000 1.0
23.00000000 5.00000000 1.0
24.00000000 5.00000000 1.0
25.00000000 5.00000000 1.0
26.00000000 5.00000000 1.0
27.00000000 5.00000000 1.0
28.00000000 5.00000000 1.0
29.00000000 5.00000000 1.0
30.00000000 5.00000000 1.0
31.00000000 5.00000000 1.0
32.00000000 5.00000000 1.0
33.00000000 5.00000000 1.0
34.00000000 5.00000000 1.0
35.00000000 5.00000000 1.0
36.00000000 5.00000000 1.0
37.00000000 5.00000000 1.0
38.00000000 5.00000000 1.0
39.00000000 5.00000000 1.0
0.00000000 6.00000000 1.0
1.00000000 6.00000000 1.0
2.00000000 6.00000000 1.0
3.00000000 6.00000000 1.0
4.00000000 6.00000000 1.0
5.00000000 6.00000000 1.0
6.00000000 6.00000000 1.0
7.00000000 6.00000000 1.0
8.00000000 6.00000000 1.0
9.00000000 6.00000000 1.0
10.00000000 6.00000000 1.0
11.00000000 6.00000000 1.0
12.00000000 6.00000000 1.0
13.00000000 6.00000000 1.0
14.00000000 6.00000000 1.0
15.00000000 6.00000000 1.0
16.00000000 6.00000000 1.0
17.00000000 6.00000000 1.0
18.00000000 6.00000000 1.0
19.00000000 6.00000000 1.0
20.00000000 6.00000000 1.0
21.00000000 6.00000000 1.0
22.00000000 6.00000000 1.0
23.00000000 6.00000000 1.0
24.00000000 6.00000000 1.0
25.00000000 6.00000000 1.0
26.00000000 6.00000000 1.0
27.00000000 6.00000000 1.0
28.00000000 6.00000000 1.0
29.00000000 6.00000000 1.0
30.00000000 6.00000000 1.0
31.00000000 6.00000000 1.0
32.00000000 6.00000000 1.0
33.00000000 6.00000000 1.0
34.00000000 6.00000000 1.0
35.00000000 6.00000000 1.0
36.00000000 6.00000000 1.0
37.00000000 6.00000000 1.0
38.00000000 6.00000000 1.0
39.00000000 6.00000000 1.0
0.00000000 7.00000000 1.0
1.00000000 7.00000000 1.0
2.00000000 7.00000000 1.0
3.00000000 7.00000000 1.0
4.00000000 7.00000000 1.0
5.00000000 7.00000000 1.0
6.00000000 7.00000000 1.0
7.00000000 7.00000000 1.0
8.00000000 7.00000000 1.0
9.00000000 7.00000000 1.0
10.00000000 7.00000000 1.0
11.00000000 7.00000000 1.0
12.00000000 7.00000000 1.0
13.00000000 7.00000000 1.0
14.00000000 7.00000000 1.0
15.00000000 7.00000000 1.0
16.00000000 7.00000000 1.0
17.00000000 7.00000000 1.0
18.00000000 7.00000000 1.0
19.00000000 7.00000000 1.0
20.00000000 7.00000000 1.0
21.00000000 7.00000000 1.0
22.00000000 7.00000000 1.0
23.00000000 7.00000000 1.0
24.00000000 7.00000000 1.0
25.00000000 7.00000000 1.0
26.00000000 7.00000000 1.0
27.00000000 7.00000000 1.0
28.00000000 7.00000000 1.0
29.00000000 7.00000000 1.0
30.00000000 7.00000000 1.0
31.00000000 7.00000000 1.0
32.00000000 7.00000000 1.0
33.00000000 7.00000000 1.0
34.00000000 7.00000000 1.0
35.00000000 7.00000000 1.0
36.00000000 7.00000000 1.0
37.00000000 7.00000000 1.0
38.00000000 7.00000000 1.0
39.00000000 7.00000000 1.0
0.00000000 8.00000000 1.0
1.00000000 8.00000000 1.0
2.00000000 8.00000000 1.0
3.00000000 8.00000000 1.0
4.00000000 8.00000000 1.0
5.00000000 8.00000000 1.0
6.00000000 8.00000000 1.0
7.00000000 8.00000000 1.0
8.00000000 8.00000000 1.0
9.00000000 8.00000000 1.0
10.00000000 8.00000000 1.0
11.00000000 8.00000000 1.0
12.00000000 8.00000000 1.0
13.00000000 8.00000000 1.0
14.00000000 8.00000000 1.0
15.00000000 8.00000000 1.0
16.00000000 8.00000000 1.0
17.00000000 8.00000000 1.0
18.00000000 8.00000000 1.0
19.00000000 8.00000000 1.0
20.00000000 8.00000000 1.0
21.00000000 8.00000000 1.0
22.00000000 8.00000000 1.0
23.00000000 8.00000000 1.0
24.00000000 8.00000000 1.0
25.00000000 8.00000000 1.0
26.00000000 8.00000000 1.0
27.00000000 8.00000000 1.0
28.00000000 8.00000000 1.0
29.00000000 8.00000000 1.0
30.00000000 8.00000000 1.0
31.00000000 8.00000000 1.0
32.00000000 8.00000000 1.0
33.00000000 8.00000000 1.0
34.00000000 8.00000000 1.0
35.00000000 8.00000000 1.0
36.00000000 8.00000000 1.0
37.00000000 8.00000000 1.0
38.00000000 8.00000000 1.0
39.00000000 8.00000000 1.0
0.00000000 9.00000000 1.0
1.00000000 9.00000000 1.0
2.00000000 9.00000000 1.0
3.00000000 9.00000000 1.0
4.00000000 9.00000000 1.0
5.00000000 9.00000000 1.0
6.00000000 9.00000000 1.0
7.00000000 9.00000000 1.0
8.00000000 9.00000000 1.0
[...]
POINT_DATA 1600
VECTORS velocity double
0.00000000 0.00003225 0.0
0.00000027 -0.00003239 0.0
0.00000052 -0.00001159 0.0
0.00000068 0.00005214 0.0
0.00000074 0.00012898 0.0
0.00000070 0.00020373 0.0
0.00000059 0.00026936 0.0
0.00000044 0.00032281 0.0
0.00000025 0.00036294 0.0
0.00000004 0.00038957 0.0
-0.00000019 0.00040308 0.0
-0.00000041 0.00040417 0.0
-0.00000062 0.00039374 0.0
-0.00000083 0.00037281 0.0
-0.00000102 0.00034250 0.0
-0.00000118 0.00030400 0.0
-0.00000132 0.00025852 0.0
-0.00000143 0.00020730 0.0
-0.00000151 0.00015161 0.0
-0.00000156 0.00009269 0.0
-0.00000158 0.00003183 0.0
-0.00000156 -0.00002972 0.0
-0.00000151 -0.00009067 0.0
-0.00000143 -0.00014974 0.0
-0.00000132 -0.00020566 0.0
-0.00000118 -0.00025712 0.0
-0.00000102 -0.00030285 0.0
-0.00000083 -0.00034157 0.0
-0.00000063 -0.00037205 0.0
-0.00000041 -0.00039307 0.0
-0.00000018 -0.00040349 0.0
0.00000004 -0.00040229 0.0
0.00000025 -0.00038856 0.0
0.00000044 -0.00036164 0.0
0.00000060 -0.00032118 0.0
0.00000070 -0.00026740 0.0
0.00000074 -0.00020147 0.0
0.00000068 -0.00012653 0.0
0.00000052 -0.00004965 0.0
0.00000026 0.00001389 0.0
0.00000000 0.00009816 0.0
0.00010819 -0.00009878 0.0
0.00008477 0.00002639 0.0
-0.00015109 0.00030359 0.0
-0.00063507 0.00062992 0.0
-0.00136240 0.00094949 0.0
-0.00230643 0.00123322 0.0
-0.00342928 0.00146668 0.0
-0.00468784 0.00164339 0.0
-0.00603733 0.00176144 0.0
-0.00743342 0.00182163 0.0
-0.00883363 0.00182646 0.0
-0.01019818 0.00177956 0.0
-0.01149067 0.00168532 0.0
-0.01267842 0.00154862 0.0
-0.01373279 0.00137470 0.0
-0.01462934 0.00116904 0.0
-0.01534793 0.00093723 0.0
-0.01587284 0.00068498 0.0
-0.01619275 0.00041805 0.0
-0.01630082 0.00014222 0.0
-0.01619467 -0.00013671 0.0
-0.01587641 -0.00041289 0.0
-0.01535266 -0.00068048 0.0
-0.01463455 -0.00093362 0.0
-0.01373772 -0.00116645 0.0
-0.01268228 -0.00137315 0.0
-0.01149275 -0.00154800 0.0
-0.01019798 -0.00168539 0.0
-0.00883087 -0.00177999 0.0
-0.00742816 -0.00182683 0.0
-0.00602993 -0.00182151 0.0
-0.00467898 -0.00176043 0.0
-0.00341986 -0.00164117 0.0
-0.00229751 -0.00146307 0.0
-0.00135501 -0.00122824 0.0
-0.00063007 -0.00094335 0.0
-0.00014897 -0.00062310 0.0
0.00008403 -0.00029677 0.0
0.00010542 -0.00002058 0.0
0.00000000 0.00010402 0.0
0.00003295 -0.00010517 0.0
-0.00021001 0.00026935 0.0
-0.00082632 0.00091990 0.0
-0.00185904 0.00166264 0.0
-0.00329922 0.00238967 0.0
-0.00510512 0.00303913 0.0
-0.00721539 0.00357695 0.0
-0.00955798 0.00398597 0.0
-0.01205613 0.00425959 0.0
-0.01463246 0.00439796 0.0
-0.01721176 0.00440575 0.0
-0.01972286 0.00429067 0.0
-0.02210007 0.00406253 0.0
-0.02428408 0.00373263 0.0
-0.02622263 0.00331325 0.0
-0.02787095 0.00281736 0.0
-0.02919209 0.00225837 0.0
-0.03015710 0.00165000 0.0
-0.03074516 0.00100611 0.0
-0.03094364 0.00034070 0.0
-0.03074818 -0.00033216 0.0
-0.03016272 -0.00099835 0.0
-0.02919950 -0.00164370 0.0
-0.02787906 -0.00225406 0.0
-0.02623018 -0.00281532 0.0
-0.02428982 -0.00331352 0.0
-0.02210287 -0.00373495 0.0
-0.01972188 -0.00406638 0.0
-0.01720659 -0.00429528 0.0
-0.01462318 -0.00441023 0.0
-0.01204334 -0.00440135 0.0
-0.00954277 -0.00426100 0.0
-0.00719925 -0.00398470 0.0
-0.00508972 -0.00357261 0.0
-0.00328619 -0.00303176 0.0
-0.00184973 -0.00237982 0.0
-0.00082145 -0.00165137 0.0
-0.00020939 -0.00090883 0.0
0.00003064 -0.00026061 0.0
0.00000000 -0.00002688 0.0
-0.00010636 0.00002544 0.0
-0.00066614 0.00082913 0.0
-0.00174631 0.00200007 0.0
-0.00337427 0.00329060 0.0
-0.00552874 0.00454415 0.0
-0.00815363 0.00566401 0.0
-0.01116958 0.00659290 0.0
-0.01448318 0.00729958 0.0
-0.01799393 0.00777034 0.0
-0.02159940 0.00800343 0.0
-0.02519908 0.00800543 0.0
-0.02869717 0.00778877 0.0
-0.03200468 0.00737004 0.0
-0.03504085 0.00676879 0.0
-0.03773424 0.00600664 0.0
-0.04002351 0.00510662 0.0
-0.04185786 0.00409273 0.0
-0.04319746 0.00298960 0.0
-0.04401361 0.00182226 0.0
-0.04428893 0.00061602 0.0
-0.04401743 -0.00060367 0.0
-0.04320456 -0.00181122 0.0
-0.04186723 -0.00298103 0.0
-0.04003376 -0.00408752 0.0
-0.03774381 -0.00510528 0.0
-0.03504811 -0.00600921 0.0
-0.03200821 -0.00677485 0.0
-0.02869590 -0.00737868 0.0
-0.02519245 -0.00779873 0.0
-0.02158749 -0.00801519 0.0
-0.01797747 -0.00801138 0.0
-0.01446351 -0.00777496 0.0
-0.01114852 -0.00729969 0.0
-0.00813328 -0.00658785 0.0
-0.00551116 -0.00565388 0.0
-0.00336115 -0.00452983 0.0
-0.00173860 -0.00327392 0.0
-0.00066373 -0.00198370 0.0
-0.00010788 -0.00081646 0.0
0.00000000 -0.00030867 0.0
-0.00026032 0.00030712 0.0
-0.00117398 0.00174279 0.0
-0.00275712 0.00358322 0.0
-0.00500578 0.00553926 0.0
-0.00787729 0.00741565 0.0
-0.01129766 0.00908439 0.0
-0.01517010 0.01046534 0.0
-0.01938288 0.01151235 0.0
-0.02381618 0.01220363 0.0
-0.02834759 0.01253485 0.0
-0.03285657 0.01251440 0.0
-0.03722771 0.01215991 0.0
-0.04135342 0.01149574 0.0
-0.04513575 0.01055113 0.0
-0.04848787 0.00935875 0.0
-0.05133501 0.00795376 0.0
-0.05361522 0.00637294 0.0
-0.05527982 0.00465420 0.0
-0.05629374 0.00283619 0.0
-0.05663574 0.00095801 0.0
-0.05629849 -0.00094092 0.0
-0.05528867 -0.00282103 0.0
-0.05362699 -0.00464271 0.0
-0.05134808 -0.00636644 0.0
-0.04850035 -0.00795301 0.0
-0.04514572 -0.00936384 0.0
-0.04135915 -0.01056142 0.0
-0.03722787 -0.01150996 0.0
-0.03285041 -0.01217619 0.0
-0.02833510 -0.01253050 0.0
-0.02379809 -0.01254839 0.0
-0.01936067 -0.01221237 0.0
-0.01514582 -0.01151454 0.0
-0.01127371 -0.01045996 0.0
-0.00785609 -0.00907150 0.0
-0.00498940 -0.00739652 0.0
-0.00274683 -0.00551649 0.0
-0.00116990 -0.00356064 0.0
-0.00026116 -0.00172520 0.0
0.00000000 -0.00073767 0.0
-0.00041077 0.00073615 0.0
-0.00168391 0.00301593 0.0
-0.00378120 0.00568051 0.0
-0.00665928 0.00841734 0.0
-0.01024718 0.01100355 0.0
-0.01444872 0.01328593 0.0
-0.01914785 0.01516447 0.0
-0.02421489 0.01657939 0.0
-0.02951254 0.01750128 0.0
-0.03490126 0.01792357 0.0
-0.04024374 0.01785688 0.0
-0.04540853 0.01732470 0.0
-0.05027293 0.01636015 0.0
-0.05472517 0.01500336 0.0
-0.05866602 0.01329961 0.0
-0.06201002 0.01129775 0.0
-0.06468627 0.00904919 0.0
-0.06663908 0.00660700 0.0
-0.06782828 0.00402539 0.0
-0.06822954 0.00135927 0.0
-0.06783447 -0.00133599 0.0
-0.06665072 -0.00400478 0.0
-0.06470197 -0.00659146 0.0
-0.06202786 -0.00904055 0.0
-0.05868379 -0.01129708 0.0
-0.05474055 -0.01330707 0.0
-0.05028381 -0.01501817 0.0
-0.04541321 -0.01638056 0.0
-0.04024118 -0.01734822 0.0
-0.03489122 -0.01788046 0.0
-0.02949564 -0.01794396 0.0
-0.02419262 -0.01751540 0.0
-0.01912241 -0.01658475 0.0
-0.01442278 -0.01515960 0.0
-0.01022352 -0.01327076 0.0
-0.00664039 -0.01097966 0.0
-0.00376878 -0.00838809 0.0
-0.00167844 -0.00565098 0.0
-0.00041108 -0.00299256 0.0
0.00000000 -0.00130524 0.0
-0.00055247 0.00130387 0.0
-0.00217707 0.00464052 0.0
-0.00478492 0.00828836 0.0
-0.00829083 0.01192325 0.0
-0.01259134 0.01530406 0.0
-0.01756436 0.01825894 0.0
-0.02307216 0.02067227 0.0
-0.02896610 0.02247333 0.0
-0.03509167 0.02362686 0.0
-0.04129338 0.02412528 0.0
-0.04741907 0.02398256 0.0
-0.05332355 0.02322918 0.0
-0.05887152 0.02190812 0.0
-0.06393988 0.02007173 0.0
-0.06841944 0.01777917 0.0
-0.07221621 0.01509453 0.0
-0.07525228 0.01208525 0.0
-0.07746641 0.00882113 0.0
-0.07881449 0.00537347 0.0
-0.07926976 0.00181455 0.0
-0.07882300 -0.00178275 0.0
-0.07748256 -0.00534522 0.0
-0.07527441 -0.00879961 0.0
-0.07224204 -0.01207291 0.0
-0.06844628 -0.01509285 0.0
-0.06396490 -0.01778846 0.0
-0.05889205 -0.02009101 0.0
-0.05333737 -0.02193525 0.0
-0.04742465 -0.02326094 0.0
-0.04129009 -0.02401502 0.0
-0.03507987 -0.02415417 0.0
-0.02894717 -0.02364810 0.0
-0.02304836 -0.02248356 0.0
-0.01753860 -0.02066937 0.0
-0.01256680 -0.01824256 0.0
-0.00827048 -0.01527598 0.0
-0.00477101 -0.01188756 0.0
-0.00217053 -0.00825146 0.0
-0.00055237 -0.00461072 0.0
0.00000000 -0.00200281 0.0
-0.00068528 0.00200165 0.0
-0.00264954 0.00660478 0.0
-0.00575879 0.01139761 0.0
-0.00988647 0.01605094 0.0
-0.01489467 0.02031226 0.0
-0.02063266 0.02399693 0.0
-0.02693876 0.02697837 0.0
-0.03364382 0.02917840 0.0
-0.04057552 0.03055856 0.0
-0.04756266 0.03111242 0.0
-0.05443914 0.03085904 0.0
-0.06104743 0.02983747 0.0
-0.06724136 0.02810205 0.0
-0.07288839 0.02571875 0.0
-0.07787125 0.02276203 0.0
-0.08208920 0.01931248 0.0
-0.08545887 0.01545492 0.0
-0.08791482 0.01127708 0.0
-0.08940992 0.00686858 0.0
-0.08991561 0.00232023 0.0
-0.08942196 -0.00227640 0.0
-0.08793785 -0.00682934 0.0
-0.08549088 -0.01124657 0.0
-0.08212741 -0.01543639 0.0
-0.07791233 -0.01930793 0.0
-0.07292879 -0.02277199 0.0
-0.06727765 -0.02574216 0.0
-0.06107660 -0.02813629 0.0
-0.05445896 -0.02987858 0.0
-0.04757188 -0.03090210 0.0
-0.04057406 -0.03115199 0.0
-0.03363280 -0.03058937 0.0
-0.02692039 -0.02919596 0.0
-0.02061005 -0.02697970 0.0
-0.01487141 -0.02398120 0.0
-0.00986612 -0.02028126 0.0
-0.00574424 -0.01600944 0.0
-0.00264235 -0.01135335 0.0
-0.00068489 -0.00656818 0.0
0.00000000 -0.00282366 0.0
-0.00081094 0.00282279 0.0
-0.00310429 0.00889813 0.0
-0.00670579 0.01499911 0.0
-0.01144912 0.02079426 0.0
-0.01716110 0.02602423 0.0
-0.02366063 0.03049647 0.0
-0.03076010 0.03407783 0.0
-0.03826827 0.03668658 0.0
-0.04599403 0.03828431 0.0
-0.05375016 0.03886855 0.0
-0.06135696 0.03846584 0.0
-0.06864536 0.03712587 0.0
-0.07545954 0.03491623 0.0
-0.08165892 0.03191813 0.0
-0.08711967 0.02822278 0.0
-0.09173578 0.02392859 0.0
-0.09541978 0.01913892 0.0
-0.09810315 0.01396045 0.0
-0.09973661 0.00850203 0.0
-0.10029026 0.00287388 0.0
-0.09975370 -0.00281296 0.0
-0.09813605 -0.00844699 0.0
-0.09546602 -0.01391661 0.0
-0.09179190 -0.01911051 0.0
-0.08718150 -0.02391832 0.0
-0.08172196 -0.02823154 0.0
-0.07551930 -0.03194481 0.0
-0.06869779 -0.03495780 0.0
-0.06139880 -0.03717757 0.0
-0.05377930 -0.03852161 0.0
-0.04600967 -0.03892162 0.0
-0.03827109 -0.03832795 0.0
-0.03075214 -0.03671491 0.0
-0.02364513 -0.03408671 0.0
-0.01714206 -0.03048428 0.0
-0.01143075 -0.02599257 0.0
-0.00669179 -0.02074840 0.0
-0.00309699 -0.01494816 0.0
-0.00081040 -0.00885477 0.0
0.00000000 -0.00376352 0.0
-0.00093174 0.00376298 0.0
-0.00354714 0.01151353 0.0
-0.00763490 0.01908688 0.0
-0.01299042 0.02614978 0.0
-0.01940503 0.03243885 0.0
-0.02666597 0.03775742 0.0
-0.03455808 0.04196994 0.0
-0.04286658 0.04499508 0.0
-0.05138049 0.04679822 0.0
-0.05989606 0.04738411 0.0
-0.06821998 0.04678977 0.0
-0.07617221 0.04507809 0.0
-0.08358811 0.04233214 0.0
-0.09032024 0.03865026 0.0
-0.09623951 0.03414205 0.0
-0.10123595 0.02892504 0.0
-0.10521920 0.02312217 0.0
-0.10811870 0.01685994 0.0
-0.10988378 0.01026712 0.0
-0.11048373 0.00347383 0.0
-0.10990775 -0.00338893 0.0
-0.10816505 -0.01018970 0.0
-0.10528487 -0.01679679 0.0
-0.10131662 -0.02307875 0.0
-0.09632994 -0.02890500 0.0
-0.09041467 -0.03414681 0.0
-0.08368069 -0.03867879 0.0
-0.07625750 -0.04238100 0.0
-0.06829339 -0.04514168 0.0
-0.05995423 -0.04686077 0.0
-0.05142165 -0.04745419 0.0
-0.04289069 -0.04685891 0.0
-0.03456684 -0.04503876 0.0
-0.02666264 -0.04199091 0.0
-0.01939400 -0.03775291 0.0
-0.01297663 -0.03240995 0.0
-0.00762298 -0.02610205 0.0
-0.00354045 -0.01903069 0.0
-0.00093125 -0.01146396 0.0
0.00000000 -0.00482052 0.0
-0.00105002 0.00482035 0.0
-0.00398478 0.01444829 0.0
-0.00855744 0.02365954 0.0
-0.01452593 0.03211827 0.0
-0.02164576 0.03955868 0.0
-0.02967141 0.04578307 0.0
-0.03835877 0.05065730 0.0
-0.04746817 0.05410448 0.0
-0.05676776 0.05609781 0.0
-0.06603671 0.05665306 0.0
-0.07506808 0.05582114 0.0
-0.08367121 0.05368122 0.0
-0.09167351 0.05033443 0.0
-0.09892172 0.04589848 0.0
-0.10528272 0.04050305 0.0
-0.11064384 0.03428616 0.0
-0.11491300 0.02739133 0.0
-0.11801863 0.01996557 0.0
-0.11990945 0.01215794 0.0
-0.12055437 0.00411876 0.0
-0.11994238 -0.00400093 0.0
-0.11808253 -0.01204955 0.0
-0.11500408 -0.01987523 0.0
-0.11075673 -0.02732611 0.0
-0.10541084 -0.03425089 0.0
-0.09905775 -0.04049990 0.0
-0.09180987 -0.04592666 0.0
-0.08380069 -0.05039018 0.0
-0.07518434 -0.05375803 0.0
-0.06613481 -0.05591030 0.0
-0.05684457 -0.05674444 0.0
-0.04752263 -0.05618085 0.0
-0.03839199 -0.05416939 0.0
-0.02968653 -0.05069638 0.0
-0.02164751 -0.04579193 0.0
-0.01452001 -0.03953744 0.0
-0.00854959 -0.03207246 0.0
-0.00397965 -0.02360064 0.0
-0.00104984 -0.01439377 0.0
0.00000000 -0.00599506 0.0
-0.00116793 0.00599532 0.0
-0.00442390 0.01770425 0.0
-0.00948524 0.02872088 0.0
-0.01607233 0.03870536 0.0
-0.02390408 0.04739043 0.0
-0.03270100 0.05457999 0.0
-0.04218865 0.06014495 0.0
-0.05210126 0.06401709 0.0
-0.06218521 0.06618176 0.0
-0.07220213 0.06666998 0.0
-0.08193148 0.06555050 0.0
-0.09117252 0.06292226 0.0
-0.09974556 0.05890747 0.0
-0.10749270 0.05364562 0.0
-0.11427807 0.04728842 0.0
-0.11998765 0.03999574 0.0
-0.12452892 0.03193260 0.0
-0.12783032 0.02326697 0.0
-0.12984080 0.01416842 0.0
-0.13052940 0.00480736 0.0
-0.12988501 -0.00464532 0.0
-0.12791634 -0.01401822 0.0
-0.12465209 -0.02313948 0.0
-0.12014135 -0.03183685 0.0
-0.11445410 -0.03993814 0.0
-0.10768183 -0.04727216 0.0
-0.09993815 -0.05367035 0.0
-0.09135914 -0.05896918 0.0
-0.08210362 -0.06301355 0.0
-0.07235280 -0.06566112 0.0
-0.06230952 -0.06678772 0.0
-0.05219677 -0.06629360 0.0
-0.04225556 -0.06411060 0.0
-0.03274211 -0.06020983 0.0
-0.02392438 -0.05460966 0.0
-0.01607832 -0.04738350 0.0
-0.00948393 -0.03866685 0.0
-0.00442151 -0.02866306 0.0
-0.00116840 -0.01764688 0.0
0.00000000 -0.00728957 0.0
-0.00128743 0.00729030 0.0
-0.00487076 0.02128758 0.0
-0.01042970 0.03427982 0.0
-0.01764589 0.04592155 0.0
-0.02620023 0.05594476 0.0
-0.03577771 0.06415747 0.0
-0.04607212 0.07043936 0.0
-0.05679037 0.07473534 0.0
-0.06765629 0.07704768 0.0
-0.07841373 0.07742742 0.0
-0.08882883 0.07596560 0.0
-0.09869147 0.07278490 0.0
-0.10781600 0.06803200 0.0
-0.11604128 0.06187090 0.0
-0.12323020 0.05447734 0.0
-0.12926892 0.04603446 0.0
-0.13406589 0.03672956 0.0
-0.13755079 0.02675187 0.0
-0.13967370 0.01629134 0.0
-0.14040435 0.00553800 0.0
-0.13973169 -0.00531797 0.0
-0.13766386 -0.01608605 0.0
-0.13422838 -0.02657497 0.0
-0.12947274 -0.03659249 0.0
-0.12346527 -0.04594561 0.0
-0.11629616 -0.05444128 0.0
-0.10807856 -0.06188795 0.0
-0.09894964 -0.06809809 0.0
-0.08907145 -0.07289174 0.0
-0.07863130 -0.07610128 0.0
-0.06784164 -0.07757738 0.0
-0.05693924 -0.07719600 0.0
-0.04618345 -0.07486638 0.0
-0.03585368 -0.07053960 0.0
-0.02624592 -0.06421742 0.0
-0.01766862 -0.05596081 0.0
-0.01043789 -0.04589758 0.0
-0.00487256 -0.03422839 0.0
-0.00128895 -0.02123050 0.0
0.00000000 -0.00870830 0.0
-0.00141023 0.00870957 0.0
-0.00533110 0.02520845 0.0
-0.01140137 0.04035010 0.0
-0.01926170 0.05378188 0.0
-0.02855277 0.06523583 0.0
-0.03892203 0.07452673 0.0
-0.05002979 0.08154712 0.0
-0.06155443 0.08625998 0.0
-0.07319663 0.08868988 0.0
-0.08468244 0.08891323 0.0
-0.09576525 0.08704841 0.0
-0.10622672 0.08324637 0.0
-0.11587672 0.07768200 0.0
-0.12455262 0.07054679 0.0
-0.13211796 0.06204268 0.0
-0.13846092 0.05237742 0.0
-0.14349257 0.04176121 0.0
-0.14714527 0.03040458 0.0
-0.14937128 0.01851734 0.0
-0.15014165 0.00630837 0.0
-0.14944564 -0.00601399 0.0
-0.14729051 -0.01824118 0.0
-0.14370191 -0.03016357 0.0
-0.13872463 -0.04156977 0.0
-0.13242385 -0.05224639 0.0
-0.12488669 -0.06197843 0.0
-0.11622398 -0.07055066 0.0
-0.10657203 -0.07775004 0.0
-0.09609430 -0.08336947 0.0
-0.08498266 -0.08721292 0.0
-0.07345808 -0.08910196 0.0
-0.06177050 -0.08888358 0.0
-0.05019771 -0.08643918 0.0
-0.03904300 -0.08169430 0.0
-0.02863177 -0.07462865 0.0
-0.01930680 -0.06528579 0.0
-0.01142257 -0.05378180 0.0
-0.00533880 -0.04031216 0.0
-0.00141329 -0.02515601 0.0
0.00000000 -0.01025717 0.0
-0.00153789 0.01025903 0.0
-0.00581017 0.02948072 0.0
-0.01240994 0.04694987 0.0
-0.02093346 0.06230539 0.0
-0.03097808 0.07528046 0.0
-0.04215111 0.08569976 0.0
-0.05407737 0.09347338 0.0
-0.06640545 0.09858806 0.0
-0.07881241 0.10109684 0.0
-0.09100684 0.10110766 0.0
-0.10273044 0.09877201 0.0
-0.11375822 0.09427415 0.0
-0.12389763 0.08782141 0.0
-0.13298680 0.07963596 0.0
-0.14089227 0.06994816 0.0
-0.14750648 0.05899163 0.0
-0.15274515 0.04699989 0.0
-0.15654500 0.03420443 0.0
-0.15886172 0.02083405 0.0
-0.15966846 0.00711512 0.0
-0.15895502 -0.00672743 0.0
-0.15672753 -0.02046867 0.0
-0.15300892 -0.03388218 0.0
-0.14783996 -0.04673873 0.0
-0.14128095 -0.05880540 0.0
-0.13341387 -0.06984551 0.0
-0.12434488 -0.07961966 0.0
-0.11420702 -0.08788791 0.0
-0.10316281 -0.09441368 0.0
-0.09140662 -0.09896912 0.0
-0.07916628 -0.10134230 0.0
-0.06670388 -0.10134597 0.0
-0.05431534 -0.09882772 0.0
-0.04232844 -0.09368120 0.0
-0.03109933 -0.08585776 0.0
-0.02100734 -0.07537778 0.0
-0.01244817 -0.06234097 0.0
-0.00582577 -0.04693457 0.0
-0.00154307 -0.02943870 0.0
0.00000000 -0.01194366 0.0
-0.00167186 0.01194617 0.0
-0.00631286 0.03412173 0.0
-0.01346434 0.05410135 0.0
-0.02267347 0.07151452 0.0
-0.03349022 0.08609721 0.0
-0.04547839 0.09768793 0.0
-0.05822495 0.10621994 0.0
-0.07134740 0.11171052 0.0
-0.08449894 0.11424838 0.0
-0.09737145 0.11398017 0.0
-0.10969655 0.11109710 0.0
-0.12124487 0.10582247 0.0
-0.13182413 0.09840067 0.0
-0.14127613 0.08908796 0.0
-0.14947334 0.07814536 0.0
-0.15631518 0.06583347 0.0
-0.16172451 0.05240922 0.0
-0.16564438 0.03812430 0.0
-0.16803540 0.02322507 0.0
-0.16887376 0.00795348 0.0
-0.16815008 -0.00745111 0.0
-0.16586903 -0.02274971 0.0
-0.16204989 -0.03770132 0.0
-0.15672791 -0.05206072 0.0
-0.14995642 -0.06557688 0.0
-0.14180976 -0.07799218 0.0
-0.13238658 -0.08904283 0.0
-0.12181364 -0.09846086 0.0
-0.11024954 -0.10597778 0.0
-0.09788832 -0.11133033 0.0
-0.08496239 -0.11426824 0.0
-0.07174435 -0.11456400 0.0
-0.05854751 -0.11202456 0.0
-0.04572446 -0.10650425 0.0
-0.03366358 -0.09791863 0.0
-0.02278331 -0.08625805 0.0
-0.01352414 -0.07160014 0.0
-0.00633863 -0.05412008 0.0
-0.00167982 -0.03409752 0.0
0.00000000 -0.01377676 0.0
-0.00181352 0.01378001 0.0
-0.00684393 0.03915213 0.0
-0.01457302 0.06183045 0.0
-0.02449294 0.08143443 0.0
-0.03610099 0.09770526 0.0
-0.04891337 0.11050031 0.0
-0.06247643 0.11978299 0.0
-0.07637523 0.12560932 0.0
-0.09023919 0.12811233 0.0
-0.10374480 0.12748578 0.0
-0.11661591 0.12396821 0.0
-0.12862188 0.11782845 0.0
-0.13957419 0.10935298 0.0
-0.14932202 0.09883579 0.0
-0.15774735 0.08657070 0.0
-0.16475998 0.07284609 0.0
-0.17029275 0.05794199 0.0
-0.17429745 0.04212900 0.0
-0.17674135 0.02566898 0.0
-0.17760476 0.00881689 0.0
-0.17687948 -0.00817639 0.0
-0.17456838 -0.02506081 0.0
-0.17068602 -0.04158368 0.0
-0.16526034 -0.05748641 0.0
-0.15833533 -0.07250189 0.0
-0.14997468 -0.08635283 0.0
-0.14026613 -0.09875138 0.0
-0.12932642 -0.10940057 0.0
-0.11730642 -0.11799777 0.0
-0.10439625 -0.12424050 0.0
-0.09082966 -0.12783482 0.0
-0.07688741 -0.12850626 0.0
-0.06289886 -0.12601310 0.0
-0.04924140 -0.12016171 0.0
-0.03633713 -0.11082291 0.0
-0.02464657 -0.09794860 0.0
-0.01465942 -0.08158729 0.0
-0.00688240 -0.06189710 0.0
-0.00182501 -0.03915491 0.0
0.00000000 -0.01576709 0.0
-0.00196434 0.01577117 0.0
-0.00740819 0.04459598 0.0
-0.01574438 0.07016664 0.0
-0.02640237 0.09209241 0.0
-0.03882029 0.11012318 0.0
-0.05246169 0.12414172 0.0
-0.06682911 0.13415041 0.0
-0.08147391 0.14025412 0.0
-0.09600221 0.14264064 0.0
-0.11007722 0.14156078 0.0
-0.12341829 0.13730929 0.0
-0.13579758 0.13020773 0.0
-0.14703483 0.12059023 0.0
-0.15699119 0.10879216 0.0
-0.16556258 0.09514209 0.0
-0.17267312 0.07995663 0.0
-0.17826911 0.06353798 0.0
-0.18231381 0.04617369 0.0
-0.18478318 0.02813835 0.0
-0.18566286 0.00969657 0.0
-0.18494628 -0.00889297 0.0
-0.18263412 -0.02737297 0.0
-0.17873503 -0.04548277 0.0
-0.17326764 -0.06295379 0.0
-0.16626386 -0.07950568 0.0
-0.15777324 -0.09484344 0.0
-0.14786854 -0.10865608 0.0
-0.13665194 -0.12061717 0.0
-0.12426185 -0.13038786 0.0
-0.11087977 -0.13762258 0.0
-0.09673662 -0.14197797 0.0
-0.08211790 -0.14312498 0.0
-0.06736691 -0.14076409 0.0
-0.05288534 -0.13464328 0.0
-0.03913041 -0.12457784 0.0
-0.02660816 -0.11047085 0.0
-0.01586279 -0.09233266 0.0
-0.00746214 -0.07029774 0.0
-0.00198017 -0.04463688 0.0
0.00000000 -0.01792705 0.0
-0.00212591 0.01793206 0.0
-0.00801094 0.05048101 0.0
-0.01698725 0.07914295 0.0
-0.02841214 0.10351730 0.0
-0.04165645 0.12336750 0.0
-0.05612507 0.13861033 0.0