# vtk DataFile Version 4.0
2D velocity field
ASCII
DATASET STRUCTURED_GRID
DIMENSIONS 40 40 1
POINTS 1600 float
0.00000000 0.00000000 1.0
1.00000000 0.00000000 1.0
2.00000000 0.00000000 1.0
3.00000000 0.00000000 1.0
4.00000000 0.00000000 1.0
5.00000000 0.00000000 1.0
6.00000000 0.00000000 1.0
7.00000000 0.00000000 1.0
8.00000000 0.00000000 1.0
9.00000000 0.00000000 1.0
10.00000000 0.00000000 1.0
11.00000000 0.00000000 1.0
12.00000000 0.00000000 1.0
13.00000000 0.00000000 1.0
14.00000000 0.00000000 1.0
15.00000000 0.00000000 1.0
16.00000000 0.00000000 1.0
17.00000000 0.00000000 1.0
18.00000000 0.00000000 1.0
19.00000000 0.00000000 1.0
20.00000000 0.00000000 1.0
21.00000000 0.00000000 1.0
22.00000000 0.00000000 1.0
23.00000000 0.00000000 1.0
24.00000000 0.00000000 1.0
25.00000000 0.00000000 1.0
26.00000000 0.00000000 1.0
27.00000000 0.00000000 1.0
28.00000000 0.00000000 1.0
29.00000000 0.00000000 1.0
30.00000000 0.00000000 1.0
31.00000000 0.00000000 1.0
32.00000000 0.00000000 1.0
33.00000000 0.00000000 1.0
34.00000000 0.00000000 1.0
35.00000000 0.00000000 1.0
36.00000000 0.00000000 1.0
37.00000000 0.00000000 1.0
38.00000000 0.00000000 1.0
39.00000000 0.00000000 1.0
0.00000000 1.00000000 1.0
1.00000000 1.00000000 1.0
2.00000000 1.00000000 1.0
3.00000000 1.00000000 1.0
4.00000000 1.00000000 1.0
5.00000000 1.00000000 1.0
6.00000000 1.00000000 1.0
7.00000000 1.00000000 1.0
8.00000000 1.00000000 1.0
9.00000000 1.00000000 1.0
10.00000000 1.00000000 1.0
11.00000000 1.00000000 1.0
12.00000000 1.00000000 1.0
13.00000000 1.00000000 1.0
14.00000000 1.00000000 1.0
15.00000000 1.00000000 1.0
16.00000000 1.00000000 1.0
17.00000000 1.00000000 1.0
18.00000000 1.00000000 1.0
19.00000000 1.00000000 1.0
20.00000000 1.00000000 1.0
21.00000000 1.00000000 1.0
22.00000000 1.00000000 1.0
23.00000000 1.00000000 1.0
24.00000000 1.00000000 1.0
25.00000000 1.00000000 1.0
26.00000000 1.00000000 1.0
27.00000000 1.00000000 1.0
28.00000000 1.00000000 1.0
29.00000000 1.00000000 1.0
30.00000000 1.00000000 1.0
31.00000000 1.00000000 1.0
32.00000000 1.00000000 1.0
33.00000000 1.00000000 1.0
34.00000000 1.00000000 1.0
35.00000000 1.00000000 1.0
36.00000000 1.00000000 1.0
37.00000000 1.00000000 1.0
38.00000000 1.00000000 1.0
39.00000000 1.00000000 1.0
0.00000000 2.00000000 1.0
1.00000000 2.00000000 1.0
2.00000000 2.00000000 1.0
3.00000000 2.00000000 1.0
4.00000000 2.00000000 1.0
5.00000000 2.00000000 1.0
6.00000000 2.00000000 1.0
7.00000000 2.00000000 1.0
8.00000000 2.00000000 1.0
9.00000000 2.00000000 1.0
10.00000000 2.00000000 1.0
11.00000000 2.00000000 1.0
12.00000000 2.00000000 1.0
13.00000000 2.00000000 1.0
14.00000000 2.00000000 1.0
15.00000000 2.00000000 1.0
16.00000000 2.00000000 1.0
17.00000000 2.00000000 1.0
18.00000000 2.00000000 1.0
19.00000000 2.00000000 1.0
20.00000000 2.00000000 1.0
21.00000000 2.00000000 1.0
22.00000000 2.00000000 1.0
23.00000000 2.00000000 1.0
24.00000000 2.00000000 1.0
25.00000000 2.00000000 1.0
26.00000000 2.00000000 1.0
27.00000000 2.00000000 1.0
28.00000000 2.00000000 1.0
29.00000000 2.00000000 1.0
30.00000000 2.00000000 1.0
31.00000000 2.00000000 1.0
32.00000000 2.00000000 1.0
33.00000000 2.00000000 1.0
34.00000000 2.00000000 1.0
35.00000000 2.00000000 1.0
36.00000000 2.00000000 1.0
37.00000000 2.00000000 1.0
38.00000000 2.00000000 1.0
39.00000000 2.00000000 1.0
0.00000000 3.00000000 1.0
1.00000000 3.00000000 1.0
2.00000000 3.00000000 1.0
3.00000000 3.00000000 1.0
4.00000000 3.00000000 1.0
5.00000000 3.00000000 1.0
6.00000000 3.00000000 1.0
7.00000000 3.00000000 1.0
8.00000000 3.00000000 1.0
9.00000000 3.00000000 1.0
10.00000000 3.00000000 1.0
11.00000000 3.00000000 1.0
12.00000000 3.00000000 1.0
13.00000000 3.00000000 1.0
14.00000000 3.00000000 1.0
15.00000000 3.00000000 1.0
16.00000000 3.00000000 1.0
17.00000000 3.00000000 1.0
18.00000000 3.00000000 1.0
19.00000000 3.00000000 1.0
20.00000000 3.00000000 1.0
21.00000000 3.00000000 1.0
22.00000000 3.00000000 1.0
23.00000000 3.00000000 1.0
24.00000000 3.00000000 1.0
25.00000000 3.00000000 1.0
26.00000000 3.00000000 1.0
27.00000000 3.00000000 1.0
28.00000000 3.00000000 1.0
29.00000000 3.00000000 1.0
30.00000000 3.00000000 1.0
31.00000000 3.00000000 1.0
32.00000000 3.00000000 1.0
33.00000000 3.00000000 1.0
34.00000000 3.00000000 1.0
35.00000000 3.00000000 1.0
36.00000000 3.00000000 1.0
37.00000000 3.00000000 1.0
38.00000000 3.00000000 1.0
39.00000000 3.00000000 1.0
0.00000000 4.00000000 1.0
1.00000000 4.00000000 1.0
2.00000000 4.00000000 1.0
3.00000000 4.00000000 1.0
4.00000000 4.00000000 1.0
5.00000000 4.00000000 1.0
6.00000000 4.00000000 1.0
7.00000000 4.00000000 1.0
8.00000000 4.00000000 1.0
9.00000000 4.00000000 1.0
10.00000000 4.00000000 1.0
11.00000000 4.00000000 1.0
12.00000000 4.00000000 1.0
13.00000000 4.00000000 1.0
14.00000000 4.00000000 1.0
15.00000000 4.00000000 1.0
16.00000000 4.00000000 1.0
17.00000000 4.00000000 1.0
18.00000000 4.00000000 1.0
19.00000000 4.00000000 1.0
20.00000000 4.00000000 1.0
21.00000000 4.00000000 1.0
22.00000000 4.00000000 1.0
23.00000000 4.00000000 1.0
24.00000000 4.00000000 1.0
25.00000000 4.00000000 1.0
26.00000000 4.00000000 1.0
27.00000000 4.00000000 1.0
28.00000000 4.00000000 1.0
29.00000000 4.00000000 1.0
30.00000000 4.00000000 1.0
31.00000000 4.00000000 1.0
32.00000000 4.00000000 1.0
33.00000000 4.00000000 1.0
34.00000000 4.00000000 1.0
35.00000000 4.00000000 1.0
36.00000000 4.00000000 1.0
37.00000000 4.00000000 1.0
38.00000000 4.00000000 1.0
39.00000000 4.00000000 1.0
0.00000000 5.00000000 1.0
1.00000000 5.00000000 1.0
2.00000000 5.00000000 1.0
3.00000000 5.00000000 1.0
4.00000000 5.00000000 1.0
5.00000000 5.00000000 1.0
6.00000000 5.00000000 1.0
7.00000000 5.00000000 1.0
8.00000000 5.00000000 1.0
9.00000000 5.00000000 1.0
10.00000000 5.00000000 1.0
11.00000000 5.00000000 1.0
12.00000000 5.00000000 1.0
13.00000000 5.00000000 1.0
14.00000000 5.00000000 1.0
15.00000000 5.00000000 1.0
16.00000000 5.00000000 1.0
17.00000000 5.00000000 1.0
18.00000000 5.00000000 1.0
19.00000000 5.00000000 1.0
20.00000000 5.00000000 1.0
21.00000000 5.00000000 1.0
22.00000000 5.00000000 1.0
23.00000000 5.00000000 1.0
24.00000000 5.00000000 1.0
25.00000000 5.00000000 1.0
26.00000000 5.00000000 1.0
27.00000000 5.00000000 1.0
28.00000000 5.00000000 1.0
29.00000000 5.00000000 1.0
30.00000000 5.00000000 1.0
31.00000000 5.00000000 1.0
32.00000000 5.00000000 1.0
33.00000000 5.00000000 1.0
34.00000000 5.00000000 1.0
35.00000000 5.00000000 1.0
36.00000000 5.00000000 1.0
37.00000000 5.00000000 1.0
38.00000000 5.00000000 1.0
39.00000000 5.00000000 1.0
0.00000000 6.00000000 1.0
1.00000000 6.00000000 1.0
2.00000000 6.00000000 1.0
3.00000000 6.00000000 1.0
4.00000000 6.00000000 1.0
5.00000000 6.00000000 1.0
6.00000000 6.00000000 1.0
7.00000000 6.00000000 1.0
8.00000000 6.00000000 1.0
9.00000000 6.00000000 1.0
10.00000000 6.00000000 1.0
11.00000000 6.00000000 1.0
12.00000000 6.00000000 1.0
13.00000000 6.00000000 1.0
14.00000000 6.00000000 1.0
15.00000000 6.00000000 1.0
16.00000000 6.00000000 1.0
17.00000000 6.00000000 1.0
18.00000000 6.00000000 1.0
19.00000000 6.00000000 1.0
20.00000000 6.00000000 1.0
21.00000000 6.00000000 1.0
22.00000000 6.00000000 1.0
23.00000000 6.00000000 1.0
24.00000000 6.00000000 1.0
25.00000000 6.00000000 1.0
26.00000000 6.00000000 1.0
27.00000000 6.00000000 1.0
28.00000000 6.00000000 1.0
29.00000000 6.00000000 1.0
30.00000000 6.00000000 1.0
31.00000000 6.00000000 1.0
32.00000000 6.00000000 1.0
33.00000000 6.00000000 1.0
34.00000000 6.00000000 1.0
35.00000000 6.00000000 1.0
36.00000000 6.00000000 1.0
37.00000000 6.00000000 1.0
38.00000000 6.00000000 1.0
39.00000000 6.00000000 1.0
0.00000000 7.00000000 1.0
1.00000000 7.00000000 1.0
2.00000000 7.00000000 1.0
3.00000000 7.00000000 1.0
4.00000000 7.00000000 1.0
5.00000000 7.00000000 1.0
6.00000000 7.00000000 1.0
7.00000000 7.00000000 1.0
8.00000000 7.00000000 1.0
9.00000000 7.00000000 1.0
10.00000000 7.00000000 1.0
11.00000000 7.00000000 1.0
12.00000000 7.00000000 1.0
13.00000000 7.00000000 1.0
14.00000000 7.00000000 1.0
15.00000000 7.00000000 1.0
16.00000000 7.00000000 1.0
17.00000000 7.00000000 1.0
18.00000000 7.00000000 1.0
19.00000000 7.00000000 1.0
20.00000000 7.00000000 1.0
21.00000000 7.00000000 1.0
22.00000000 7.00000000 1.0
23.00000000 7.00000000 1.0
24.00000000 7.00000000 1.0
25.00000000 7.00000000 1.0
26.00000000 7.00000000 1.0
27.00000000 7.00000000 1.0
28.00000000 7.00000000 1.0
29.00000000 7.00000000 1.0
30.00000000 7.00000000 1.0
31.00000000 7.00000000 1.0
32.00000000 7.00000000 1.0
33.00000000 7.00000000 1.0
34.00000000 7.00000000 1.0
35.00000000 7.00000000 1.0
36.00000000 7.00000000 1.0
37.00000000 7.00000000 1.0
38.00000000 7.00000000 1.0
39.00000000 7.00000000 1.0
0.00000000 8.00000000 1.0
1.00000000 8.00000000 1.0
2.00000000 8.00000000 1.0
3.00000000 8.00000000 1.0
4.00000000 8.00000000 1.0
5.00000000 8.00000000 1.0
6.00000000 8.00000000 1.0
7.00000000 8.00000000 1.0
8.00000000 8.00000000 1.0
9.00000000 8.00000000 1.0
10.00000000 8.00000000 1.0
11.00000000 8.00000000 1.0
12.00000000 8.00000000 1.0
13.00000000 8.00000000 1.0
14.00000000 8.00000000 1.0
15.00000000 8.00000000 1.0
16.00000000 8.00000000 1.0
17.00000000 8.00000000 1.0
18.00000000 8.00000000 1.0
19.00000000 8.00000000 1.0
20.00000000 8.00000000 1.0
21.00000000 8.00000000 1.0
22.00000000 8.00000000 1.0
23.00000000 8.00000000 1.0
24.00000000 8.00000000 1.0
25.00000000 8.00000000 1.0
26.00000000 8.00000000 1.0
27.00000000 8.00000000 1.0
28.00000000 8.00000000 1.0
29.00000000 8.00000000 1.0
30.00000000 8.00000000 1.0
31.00000000 8.00000000 1.0
32.00000000 8.00000000 1.0
33.00000000 8.00000000 1.0
34.00000000 8.00000000 1.0
35.00000000 8.00000000 1.0
36.00000000 8.00000000 1.0
37.00000000 8.00000000 1.0
38.00000000 8.00000000 1.0
39.00000000 8.00000000 1.0
0.00000000 9.00000000 1.0
1.00000000 9.00000000 1.0
2.00000000 9.00000000 1.0
3.00000000 9.00000000 1.0
4.00000000 9.00000000 1.0
5.00000000 9.00000000 1.0
6.00000000 9.00000000 1.0
7.00000000 9.00000000 1.0
8.00000000 9.00000000 1.0
[...]
POINT_DATA 1600
VECTORS velocity double
0.00000000 0.00002639 0.0
0.00000025 -0.00002651 0.0
0.00000047 -0.00000513 0.0
0.00000061 0.00005338 0.0
0.00000065 0.00012270 0.0
0.00000060 0.00018951 0.0
0.00000050 0.00024770 0.0
0.00000035 0.00029468 0.0
0.00000018 0.00032956 0.0
-0.00000002 0.00035229 0.0
-0.00000022 0.00036328 0.0
-0.00000043 0.00036322 0.0
-0.00000062 0.00035298 0.0
-0.00000081 0.00033352 0.0
-0.00000098 0.00030586 0.0
-0.00000113 0.00027107 0.0
-0.00000126 0.00023024 0.0
-0.00000136 0.00018447 0.0
-0.00000143 0.00013485 0.0
-0.00000147 0.00008248 0.0
-0.00000149 0.00002843 0.0
-0.00000147 -0.00002620 0.0
-0.00000143 -0.00008032 0.0
-0.00000136 -0.00013285 0.0
-0.00000126 -0.00018267 0.0
-0.00000113 -0.00022867 0.0
-0.00000098 -0.00026975 0.0
-0.00000081 -0.00030476 0.0
-0.00000063 -0.00033260 0.0
-0.00000043 -0.00035218 0.0
-0.00000022 -0.00036246 0.0
-0.00000002 -0.00036245 0.0
0.00000018 -0.00035131 0.0
0.00000036 -0.00032836 0.0
0.00000050 -0.00029321 0.0
0.00000061 -0.00024593 0.0
0.00000065 -0.00018747 0.0
0.00000061 -0.00012045 0.0
0.00000047 -0.00005103 0.0
0.00000025 0.00000737 0.0
0.00000000 0.00008061 0.0
0.00009784 -0.00008116 0.0
0.00006668 0.00004100 0.0
-0.00015894 0.00029492 0.0
-0.00060840 0.00058929 0.0
-0.00127538 0.00087491 0.0
-0.00213457 0.00112653 0.0
-0.00315109 0.00133184 0.0
-0.00428578 0.00148560 0.0
-0.00549834 0.00158654 0.0
-0.00674916 0.00163575 0.0
-0.00800052 0.00163579 0.0
-0.00921733 0.00159016 0.0
-0.01036766 0.00150296 0.0
-0.01142301 0.00137869 0.0
-0.01235850 0.00122209 0.0
-0.01315304 0.00103805 0.0
-0.01378932 0.00083151 0.0
-0.01425384 0.00060743 0.0
-0.01453695 0.00037077 0.0
-0.01463279 0.00012651 0.0
-0.01453932 -0.00012040 0.0
-0.01425834 -0.00036499 0.0
-0.01379547 -0.00060226 0.0
-0.01316020 -0.00082720 0.0
-0.01236591 -0.00103474 0.0
-0.01142988 -0.00121981 0.0
-0.01037328 -0.00137736 0.0
-0.00922110 -0.00150240 0.0
-0.00800208 -0.00159009 0.0
-0.00674840 -0.00163586 0.0
-0.00549546 -0.00163558 0.0
-0.00428124 -0.00158574 0.0
-0.00314558 -0.00148387 0.0
-0.00212896 -0.00132897 0.0
-0.00127056 -0.00112246 0.0
-0.00060517 -0.00086977 0.0
-0.00015786 -0.00058340 0.0
0.00006552 -0.00028882 0.0
0.00009497 -0.00003556 0.0
0.00000000 0.00007979 0.0
0.00002729 -0.00008082 0.0
-0.00020617 0.00027447 0.0
-0.00077996 0.00086871 0.0
-0.00172891 0.00153825 0.0
-0.00304195 0.00218795 0.0
-0.00467936 0.00276394 0.0
-0.00658457 0.00323705 0.0
-0.00869211 0.00359314 0.0
-0.01093287 0.00382731 0.0
-0.01323772 0.00394060 0.0
-0.01553987 0.00393794 0.0
-0.01777654 0.00382683 0.0
-0.01989011 0.00361652 0.0
-0.02182882 0.00331740 0.0
-0.02354732 0.00294059 0.0
-0.02500692 0.00249766 0.0
-0.02617584 0.00200043 0.0
-0.02702924 0.00146082 0.0
-0.02754929 0.00089083 0.0
-0.02772522 0.00030244 0.0
-0.02755329 -0.00029233 0.0
-0.02703681 -0.00088146 0.0
-0.02618621 -0.00145286 0.0
-0.02501902 -0.00199439 0.0
-0.02355989 -0.00249387 0.0
-0.02184057 -0.00293914 0.0
-0.01989982 -0.00331811 0.0
-0.01778325 -0.00361898 0.0
-0.01554294 -0.00383040 0.0
-0.01323697 -0.00394184 0.0
-0.01092857 -0.00394397 0.0
-0.00868499 -0.00382932 0.0
-0.00657576 -0.00359311 0.0
-0.00467020 -0.00323453 0.0
-0.00303386 -0.00275881 0.0
-0.00172312 -0.00218051 0.0
-0.00077724 -0.00152928 0.0
-0.00020658 -0.00085949 0.0
0.00002469 -0.00026683 0.0
0.00000000 -0.00004553 0.0
-0.00009950 0.00004425 0.0
-0.00061979 0.00079476 0.0
-0.00161252 0.00186143 0.0
-0.00309812 0.00302385 0.0
-0.00505405 0.00414388 0.0
-0.00742726 0.00513715 0.0
-0.01014468 0.00595447 0.0
-0.01312142 0.00656987 0.0
-0.01626694 0.00697283 0.0
-0.01948970 0.00716336 0.0
-0.02270043 0.00714867 0.0
-0.02581458 0.00694098 0.0
-0.02875403 0.00655597 0.0
-0.03144829 0.00601166 0.0
-0.03383531 0.00532761 0.0
-0.03586205 0.00452440 0.0
-0.03748479 0.00362316 0.0
-0.03866931 0.00264534 0.0
-0.03939104 0.00161256 0.0
-0.03963511 0.00054651 0.0
-0.03939637 -0.00053108 0.0
-0.03867943 -0.00159840 0.0
-0.03749870 -0.00263359 0.0
-0.03587837 -0.00361472 0.0
-0.03385240 -0.00451984 0.0
-0.03146446 -0.00532708 0.0
-0.02876771 -0.00601486 0.0
-0.02582447 -0.00656221 0.0
-0.02270567 -0.00694920 0.0
-0.01948999 -0.00715752 0.0
-0.01626255 -0.00717140 0.0
-0.01311322 -0.00697866 0.0
-0.01013404 -0.00657230 0.0
-0.00741583 -0.00595273 0.0
-0.00504359 -0.00513105 0.0
-0.00309017 -0.00413394 0.0
-0.00160807 -0.00301138 0.0
-0.00061900 -0.00184855 0.0
-0.00010149 -0.00078434 0.0
0.00000000 -0.00030662 0.0
-0.00023799 0.00030527 0.0
-0.00107642 0.00163319 0.0
-0.00252109 0.00330609 0.0
-0.00456420 0.00506697 0.0
-0.00716387 0.00674355 0.0
-0.01025081 0.00822409 0.0
-0.01373603 0.00943969 0.0
-0.01751797 0.01035182 0.0
-0.02148867 0.01094353 0.0
-0.02553860 0.01121330 0.0
-0.02956060 0.01117066 0.0
-0.03345269 0.01083308 0.0
-0.03712034 0.01022362 0.0
-0.04047797 0.00936928 0.0
-0.04345006 0.00829971 0.0
-0.04597192 0.00704626 0.0
-0.04799013 0.00564137 0.0
-0.04946285 0.00411807 0.0
-0.05036004 0.00250974 0.0
-0.05066345 0.00084993 0.0
-0.05036681 -0.00082772 0.0
-0.04947577 -0.00248944 0.0
-0.04800797 -0.00410140 0.0
-0.04599301 -0.00562968 0.0
-0.04347244 -0.00704041 0.0
-0.04049956 -0.00829995 0.0
-0.03713920 -0.00937522 0.0
-0.03346719 -0.01023423 0.0
-0.02956960 -0.01084679 0.0
-0.02554161 -0.01118551 0.0
-0.02148588 -0.01122713 0.0
-0.01751029 -0.01095425 0.0
-0.01372494 -0.01035765 0.0
-0.01023821 -0.00943946 0.0
-0.00715180 -0.00821746 0.0
-0.00455451 -0.00673123 0.0
-0.00251508 -0.00505081 0.0
-0.00107452 -0.00328910 0.0
-0.00023949 -0.00161937 0.0
0.00000000 -0.00069949 0.0
-0.00037260 0.00069817 0.0
-0.00153342 0.00279402 0.0
-0.00343970 0.00521237 0.0
-0.00604841 0.00767567 0.0
-0.00929219 0.00998734 0.0
-0.01308165 0.01201355 0.0
-0.01731029 0.01366832 0.0
-0.02186018 0.01490171 0.0
-0.02660745 0.01569080 0.0
-0.03142704 0.01603288 0.0
-0.03619665 0.01594027 0.0
-0.04079994 0.01543637 0.0
-0.04512893 0.01455261 0.0
-0.04908577 0.01332612 0.0
-0.05258405 0.01179799 0.0
-0.05554968 0.01001189 0.0
-0.05792146 0.00801315 0.0
-0.05965145 0.00584806 0.0
-0.06070517 0.00356346 0.0
-0.06106171 0.00120648 0.0
-0.06071386 -0.00117557 0.0
-0.05966808 -0.00353522 0.0
-0.05794459 -0.00582489 0.0
-0.05557731 -0.00799696 0.0
-0.05261382 -0.01000390 0.0
-0.04911518 -0.01179859 0.0
-0.04515558 -0.01333482 0.0
-0.04082177 -0.01456804 0.0
-0.03621213 -0.01545642 0.0
-0.03143539 -0.01596225 0.0
-0.02660869 -0.01605383 0.0
-0.02185513 -0.01570781 0.0
-0.01730051 -0.01491228 0.0
-0.01306922 -0.01367074 0.0
-0.00927945 -0.01200723 0.0
-0.00603758 -0.00997310 0.0
-0.00343249 -0.00765590 0.0
-0.00153062 -0.00519097 0.0
-0.00037372 -0.00277627 0.0
0.00000000 -0.00121637 0.0
-0.00049934 0.00121519 0.0
-0.00197594 0.00427062 0.0
-0.00434208 0.00757851 0.0
-0.00751735 0.01085094 0.0
-0.01140515 0.01387514 0.0
-0.01589257 0.01650097 0.0
-0.02085332 0.01862907 0.0
-0.02615206 0.02020045 0.0
-0.03164909 0.02118783 0.0
-0.03720472 0.02158850 0.0
-0.04268309 0.02141865 0.0
-0.04795536 0.02070864 0.0
-0.05290215 0.01949941 0.0
-0.05741547 0.01783944 0.0
-0.06140000 0.01578253 0.0
-0.06477411 0.01338600 0.0
-0.06747038 0.01070942 0.0
-0.06943603 0.00781371 0.0
-0.07063310 0.00476053 0.0
-0.07103859 0.00161196 0.0
-0.07064450 -0.00156965 0.0
-0.06945793 -0.00472179 0.0
-0.06750105 -0.00778177 0.0
-0.06481116 -0.01068686 0.0
-0.06144056 -0.01337450 0.0
-0.05745647 -0.01578269 0.0
-0.05294060 -0.01785069 0.0
-0.04798860 -0.01952004 0.0
-0.04270907 -0.02073594 0.0
-0.03722220 -0.02144912 0.0
-0.03165777 -0.02161826 0.0
-0.02615260 -0.02121298 0.0
-0.02084726 -0.02021761 0.0
-0.01588218 -0.01863583 0.0
-0.01139308 -0.01649633 0.0
-0.00750626 -0.01385992 0.0
-0.00433419 -0.01082796 0.0
-0.00197251 -0.00755266 0.0
-0.00050018 -0.00424860 0.0
0.00000000 -0.00185019 0.0
-0.00061871 0.00184921 0.0
-0.00240243 0.00605434 0.0
-0.00522345 0.01039952 0.0
-0.00896432 0.01459182 0.0
-0.01349729 0.01840810 0.0
-0.01868333 0.02168701 0.0
-0.02437408 0.02431982 0.0
-0.03041523 0.02624160 0.0
-0.03665050 0.02742310 0.0
-0.04292558 0.02786359 0.0
-0.04909168 0.02758474 0.0
-0.05500850 0.02662546 0.0
-0.06054667 0.02503758 0.0
-0.06558954 0.02288231 0.0
-0.07003447 0.02022746 0.0
-0.07379372 0.01714525 0.0
-0.07679498 0.01371069 0.0
-0.07898172 0.01000045 0.0
-0.08031330 0.00609210 0.0
-0.08076508 0.00206375 0.0
-0.08032849 -0.00200625 0.0
-0.07901102 -0.00603926 0.0
-0.07683630 -0.00995649 0.0
-0.07384412 -0.01367903 0.0
-0.07009045 -0.01712817 0.0
-0.06564728 -0.02022586 0.0
-0.06060237 -0.02289560 0.0
-0.05505870 -0.02506371 0.0
-0.04913360 -0.02666105 0.0
-0.04295733 -0.02762539 0.0
-0.03667126 -0.02790432 0.0
-0.03042536 -0.02745888 0.0
-0.02437505 -0.02626792 0.0
-0.01867754 -0.02433334 0.0
-0.01348775 -0.02168612 0.0
-0.00895422 -0.01839345 0.0
-0.00521560 -0.01456658 0.0
-0.00239872 -0.01036954 0.0
-0.00061938 -0.00602794 0.0
0.00000000 -0.00259610 0.0
-0.00073281 0.00259537 0.0
-0.00281732 0.00813885 0.0
-0.00608994 0.01367214 0.0
-0.01039738 0.01889926 0.0
-0.01557975 0.02359048 0.0
-0.02147005 0.02757731 0.0
-0.02789581 0.03074558 0.0
-0.03468205 0.03302784 0.0
-0.04165479 0.03439584 0.0
-0.04864457 0.03485337 0.0
-0.05548971 0.03442988 0.0
-0.06203905 0.03317479 0.0
-0.06815408 0.03115261 0.0
-0.07371063 0.02843885 0.0
-0.07859993 0.02511676 0.0
-0.08272938 0.02127469 0.0
-0.08602288 0.01700419 0.0
-0.08842108 0.01239865 0.0
-0.08988138 0.00755241 0.0
-0.09037796 0.00256032 0.0
-0.08990175 -0.00248245 0.0
-0.08846049 -0.00748052 0.0
-0.08607877 -0.01233821 0.0
-0.08279815 -0.01695965 0.0
-0.07867722 -0.02124909 0.0
-0.07379165 -0.02511144 0.0
-0.06823398 -0.02845327 0.0
-0.06211331 -0.03118438 0.0
-0.05555453 -0.03321983 0.0
-0.04869715 -0.03448277 0.0
-0.04169363 -0.03490785 0.0
-0.03470703 -0.03444548 0.0
-0.02790819 -0.03306676 0.0
-0.02147232 -0.03076921 0.0
-0.01557528 -0.02758316 0.0
-0.01038995 -0.02357877 0.0
-0.00608314 -0.01887339 0.0
-0.00281377 -0.01363890 0.0
-0.00073342 -0.00810829 0.0
0.00000000 -0.00345183 0.0
-0.00084414 0.00345140 0.0
-0.00322738 0.01052209 0.0
-0.00695273 0.01739749 0.0
-0.01183198 0.02377851 0.0
-0.01767250 0.02943099 0.0
-0.02427775 0.03418257 0.0
-0.03144938 0.03791720 0.0
-0.03899006 0.04056852 0.0
-0.04670684 0.04211262 0.0
-0.05441441 0.04256093 0.0
-0.06193797 0.04195344 0.0
-0.06911571 0.04035253 0.0
-0.07580064 0.03783754 0.0
-0.08186193 0.03450015 0.0
-0.08718575 0.03044058 0.0
-0.09167567 0.02576462 0.0
-0.09525286 0.02058137 0.0
-0.09785598 0.01500177 0.0
-0.09944115 0.00913758 0.0
-0.09998175 0.00310092 0.0
-0.09946835 -0.00299585 0.0
-0.09790874 -0.00904013 0.0
-0.09532804 -0.01491891 0.0
-0.09176883 -0.02051886 0.0
-0.08729145 -0.02572648 0.0
-0.08197414 -0.03042875 0.0
-0.07591316 -0.03451425 0.0
-0.06922266 -0.03787488 0.0
-0.06203422 -0.04040827 0.0
-0.05449599 -0.04202100 0.0
-0.04677126 -0.04263258 0.0
-0.03903649 -0.04218025 0.0
-0.03147873 -0.04062452 0.0
-0.02429252 -0.03795543 0.0
-0.01767640 -0.03419928 0.0
-0.01182948 -0.02942569 0.0
-0.00694829 -0.02375458 0.0
-0.00322462 -0.01736257 0.0
-0.00084486 -0.01048805 0.0
0.00000000 -0.00441771 0.0
-0.00095518 0.00441762 0.0
-0.00364002 0.01320692 0.0
-0.00782481 0.02158228 0.0
-0.01328662 0.02924032 0.0
-0.01979922 0.03594359 0.0
-0.02713511 0.04151846 0.0
-0.03506830 0.04585039 0.0
-0.04337754 0.04887777 0.0
-0.05184968 0.05058476 0.0
-0.06028271 0.05099396 0.0
-0.06848845 0.05015918 0.0
-0.07629459 0.04815867 0.0
-0.08354621 0.04508916 0.0
-0.09010667 0.04106060 0.0
-0.09585803 0.03619193 0.0
-0.10070110 0.03060769 0.0
-0.10455529 0.02443556 0.0
-0.10735819 0.01780467 0.0
-0.10906525 0.01084464 0.0
-0.10964947 0.00368513 0.0
-0.10910118 -0.00354415 0.0
-0.10742804 -0.01071326 0.0
-0.10465521 -0.01769174 0.0
-0.10082561 -0.02434846 0.0
-0.09600038 -0.03055171 0.0
-0.09025931 -0.03616981 0.0
-0.08370128 -0.04107228 0.0
-0.07644447 -0.04513168 0.0
-0.06862632 -0.04822641 0.0
-0.06040307 -0.05024425 0.0
-0.05194873 -0.05108692 0.0
-0.04345349 -0.05067548 0.0
-0.03512148 -0.04895653 0.0
-0.02716789 -0.04590902 0.0
-0.01981566 -0.04155151 0.0
-0.01329190 -0.03594945 0.0
-0.00782445 -0.02922203 0.0
-0.00363886 -0.02154817 0.0
-0.00095624 -0.01317067 0.0
0.00000000 -0.00549641 0.0
-0.00106823 0.00549671 0.0
-0.00406245 0.01620114 0.0
-0.00871929 0.02623912 0.0
-0.01478026 0.03530129 0.0
-0.02198422 0.04314755 0.0
-0.03007101 0.04960524 0.0
-0.03878526 0.05456464 0.0
-0.04788024 0.05797275 0.0
-0.05712138 0.05982590 0.0
-0.06628928 0.06016186 0.0
-0.07518212 0.05905202 0.0
-0.08361738 0.05659394 0.0
-0.09143283 0.05290460 0.0
-0.09848690 0.04811468 0.0
-0.10465867 0.04236370 0.0
-0.10984733 0.03579635 0.0
-0.11397158 0.02855982 0.0
-0.11696889 0.02080198 0.0
-0.11879476 0.01267051 0.0
-0.11942223 0.00431260 0.0
-0.11884153 -0.00412485 0.0
-0.11706000 -0.01249479 0.0
-0.11410233 -0.02064941 0.0
-0.11001101 -0.02843978 0.0
-0.10484698 -0.03571574 0.0
-0.09869045 -0.04232634 0.0
-0.09164173 -0.04812100 0.0
-0.08382192 -0.05295149 0.0
-0.07537339 -0.05667494 0.0
-0.06645982 -0.05915783 0.0
-0.05726572 -0.06028102 0.0
-0.04799528 -0.05994592 0.0
-0.03887050 -0.05808131 0.0
-0.03012851 -0.05465101 0.0
-0.02201830 -0.04966172 0.0
-0.01479687 -0.04317088 0.0
-0.00872516 -0.03529375 0.0
-0.00406391 -0.02620941 0.0
-0.00106989 -0.01616469 0.0
0.00000000 -0.00669274 0.0
-0.00118531 0.00669347 0.0
-0.00450138 0.01951721 0.0
-0.00964858 0.03138632 0.0
-0.01633099 0.04198370 0.0
-0.02425053 0.05106709 0.0
-0.03311229 0.05846700 0.0
-0.04262964 0.06408199 0.0
-0.05252876 0.06787188 0.0
-0.06255256 0.06984970 0.0
-0.07246368 0.07007298 0.0
-0.08204665 0.06863500 0.0
-0.09110920 0.06565648 0.0
-0.09948264 0.06127804 0.0
-0.10702168 0.05565372 0.0
-0.11360368 0.04894570 0.0
-0.11912757 0.04132024 0.0
-0.12351262 0.03294487 0.0
-0.12669722 0.02398657 0.0
-0.12863775 0.01461105 0.0
-0.12930781 0.00498266 0.0
-0.12869766 -0.00473501 0.0
-0.12681411 -0.01437833 0.0
-0.12368083 -0.02378269 0.0
-0.11933897 -0.03278164 0.0
-0.11384815 -0.04120656 0.0
-0.10728770 -0.04888680 0.0
-0.09975793 -0.05565076 0.0
-0.09138153 -0.06132789 0.0
-0.08230459 -0.06575188 0.0
-0.07269737 -0.06876505 0.0
-0.06275442 -0.07022398 0.0
-0.05269398 -0.07000635 0.0
-0.04275655 -0.06801874 0.0
-0.03320241 -0.06420514 0.0
-0.02430831 -0.05855583 0.0
-0.01636317 -0.05111601 0.0
-0.00966326 -0.04199367 0.0
-0.00450670 -0.03136597 0.0
-0.00118793 -0.01948346 0.0
0.00000000 -0.00801341 0.0
-0.00130824 0.00801463 0.0
-0.00496286 0.02317184 0.0
-0.01062397 0.03704744 0.0
-0.01795524 0.04931496 0.0
-0.02661875 0.05973060 0.0
-0.03628229 0.06813054 0.0
-0.04662576 0.07442546 0.0
-0.05734664 0.07859275 0.0
-0.06816428 0.08066734 0.0
-0.07882304 0.08073174 0.0
-0.08909411 0.07890607 0.0
-0.09877627 0.07533864 0.0
-0.10769565 0.07019742 0.0
-0.11570474 0.06366281 0.0
-0.12268087 0.05592182 0.0
-0.12852434 0.04716371 0.0
-0.13315652 0.03757705 0.0
-0.13651801 0.02734806 0.0
-0.13856706 0.01666010 0.0
-0.13927839 0.00569400 0.0
-0.13864249 -0.00537091 0.0
-0.13666541 -0.01635542 0.0
-0.13336913 -0.02707897 0.0
-0.12879245 -0.03735832 0.0
-0.12299233 -0.04700669 0.0
-0.11604557 -0.05583355 0.0
-0.10805085 -0.06364548 0.0
-0.09913067 -0.07024807 0.0
-0.08943329 -0.07544926 0.0
-0.07913426 -0.07906408 0.0
-0.06843734 -0.08092091 0.0
-0.05757456 -0.08086913 0.0
-0.04680531 -0.07878799 0.0
-0.03641414 -0.07459632 0.0
-0.02670728 -0.06826268 0.0
-0.01800798 -0.05981531 0.0
-0.01065054 -0.04935110 0.0
-0.00497354 -0.03704297 0.0
-0.00131225 -0.02314476 0.0
0.00000000 -0.00946683 0.0
-0.00143862 0.00946860 0.0
-0.00545234 0.02718556 0.0
-0.01165561 0.04325070 0.0
-0.01966749 0.05732684 0.0
-0.02910651 0.06916963 0.0
-0.03959994 0.07862396 0.0
-0.05079166 0.08561718 0.0
-0.06234874 0.09014983 0.0
-0.07396615 0.09228475 0.0
-0.08536992 0.09213550 0.0
-0.09631860 0.08985475 0.0
-0.10660338 0.08562342 0.0
-0.11604696 0.07964100 0.0
-0.12450166 0.07211751 0.0
-0.13184690 0.06326706 0.0
-0.13798643 0.05330324 0.0
-0.14284558 0.04243620 0.0
-0.14636873 0.03087121 0.0
-0.14851715 0.01880852 0.0
-0.14926743 0.00644428 0.0
-0.14861050 -0.00602784 0.0
-0.14655137 -0.01841454 0.0
-0.14310960 -0.03052074 0.0
-0.13832040 -0.04214752 0.0
-0.13223642 -0.05309066 0.0
-0.12493006 -0.06313991 0.0
-0.11649617 -0.07207938 0.0
-0.10705489 -0.07968935 0.0
-0.09675455 -0.08574960 0.0
-0.08577416 -0.09004446 0.0
-0.07432533 -0.09236974 0.0
-0.06265319 -0.09254127 0.0
-0.05103609 -0.09040509 0.0
-0.03978377 -0.08584863 0.0
-0.02923386 -0.07881260 0.0
-0.01974655 -0.06930262 0.0
-0.01169765 -0.05739999 0.0
-0.00547015 -0.04327047 0.0
-0.00144451 -0.02717039 0.0
0.00000000 -0.01106300 0.0
-0.00157790 0.01106538 0.0
-0.00597478 0.03158244 0.0
-0.01275254 0.05002846 0.0
-0.02148029 0.06605459 0.0
-0.03172825 0.07941758 0.0
-0.04307919 0.08997490 0.0
-0.05513814 0.09767614 0.0
-0.06753996 0.10255164 0.0
-0.07995458 0.10469938 0.0
-0.09209011 0.10427103 0.0
-0.10369375 0.10145839 0.0
-0.11455105 0.09648071 0.0
-0.12448372 0.08957368 0.0
-0.13334660 0.08098039 0.0
-0.14102390 0.07094436 0.0
-0.14742540 0.05970474 0.0
-0.15248269 0.04749350 0.0
-0.15614581 0.03453433 0.0
-0.15838047 0.02104318 0.0
-0.15916597 0.00722978 0.0
-0.15849398 -0.00669983 0.0
-0.15636818 -0.02054034 0.0
-0.15280479 -0.03408413 0.0
-0.14783401 -0.04711831 0.0
-0.14150226 -0.05942242 0.0
-0.13387515 -0.07076701 0.0
-0.12504105 -0.08091348 0.0
-0.11511495 -0.08961545 0.0
-0.10424247 -0.09662208 0.0
-0.09260359 -0.10168335 0.0
-0.08041572 -0.10455760 0.0
-0.06793580 -0.10502120 0.0
-0.05546077 -0.10288011 0.0
-0.04332633 -0.09798307 0.0
-0.03190337 -0.09023556 0.0
-0.02159215 -0.07961384 0.0
-0.01281415 -0.06617800 0.0
-0.00600174 -0.05008287 0.0
-0.00158627 -0.03158586 0.0
0.00000000 -0.01281340 0.0
-0.00172746 0.01281647 0.0
-0.00653479 0.03638978 0.0
-0.01392297 0.05741663 0.0
-0.02340442 0.07553603 0.0
-0.03449513 0.09050830 0.0
-0.04672874 0.10220851 0.0
-0.05966807 0.11061548 0.0
-0.07291400 0.11579757 0.0
-0.08611109 0.11789647 0.0
-0.09895047 0.11711041 0.0
-0.11117000 0.11367793 0.0
-0.12255239 0.10786310 0.0
-0.13292163 0.09994293 0.0
-0.14213851 0.09019726 0.0
-0.15009546 0.07890131 0.0
-0.15671146 0.06632074 0.0
-0.16192712 0.05270915 0.0
-0.16570040 0.03830762 0.0
-0.16800312 0.02334589 0.0
-0.16881832 0.00804497 0.0
-0.16813875 -0.00737939 0.0
-0.16596641 -0.02271268 0.0
-0.16231319 -0.03773736 0.0
-0.15720257 -0.05222892 0.0
-0.15067247 -0.06595253 0.0
-0.14277887 -0.07866060 0.0
-0.13360043 -0.09009192 0.0
-0.12324345 -0.09997243 0.0
-0.11184727 -0.10801825 0.0
-0.09958947 -0.11394115 0.0
-0.08669041 -0.11745666 0.0
-0.07341673 -0.11829487 0.0
-0.06008305 -0.11621379 0.0
-0.04705138 -0.11101474 0.0
-0.03472783 -0.10255910 0.0
-0.02355625 -0.09078543 0.0
-0.01400870 -0.07572554 0.0
-0.00657320 -0.05751838 0.0
-0.00173897 -0.03642009 0.0
0.00000000 -0.01473105 0.0
-0.00188865 0.01473492 0.0
-0.00713689 0.04163802 0.0
-0.01517458 0.06545432 0.0
-0.02544918 0.08581063 0.0
-0.03741530 0.10247442 0.0
-0.05055182 0.11534502 0.0
-0.06437571 0.12443937 0.0
-0.07845211 0.12987396 0.0
-0.09240036 0.13184471 0.0
-0.10589632 0.13060638 0.0
-0.11867150 0.12645310 0.0
-0.13050953 0.11970113 0.0
-0.14124097 0.11067437 0.0
-0.15073691 0.09969320 0.0
-0.15890223 0.08706663 0.0
-0.16566891 0.07308742 0.0
-0.17098989 0.05803014 0.0
-0.17483371 0.04215144 0.0
-0.17718019 0.02569237 0.0
-0.17801732 0.00888210 0.0
-0.17733935 -0.00805736 0.0
-0.17514625 -0.02490578 0.0
-0.17144439 -0.04143921 0.0
-0.16624868 -0.05742464 0.0
-0.15958582 -0.07261539 0.0
-0.15149887 -0.08674755 0.0
-0.14205282 -0.09953797 0.0
-0.13134100 -0.11068425 0.0
-0.11949195 -0.11986731 0.0
-0.10667641 -0.12675670 0.0
-0.09311376 -0.13101930 0.0
-0.07907731 -0.13233132 0.0
-0.06489755 -0.13039356 0.0
-0.05096273 -0.12494956 0.0
-0.03771602 -0.11580581 0.0
-0.02564874 -0.10285271 0.0
-0.01528945 -0.08608483 0.0
-0.00718928 -0.06561854 0.0
-0.00190405 -0.04170533 0.0
0.00000000 -0.01683061 0.0
-0.00206293 0.01683538 0.0
-0.00778579 0.04736088 0.0
-0.01651502 0.07418354 0.0
-0.02762295 0.09691856 0.0
-0.04049413 0.11534560 0.0
-0.05454612 0.12939702 0.0