# vtk DataFile Version 4.0
2D velocity field
ASCII
DATASET STRUCTURED_GRID
DIMENSIONS 40 40 1
POINTS 1600 float
0.00000000 0.00000000 1.0
1.00000000 0.00000000 1.0
2.00000000 0.00000000 1.0
3.00000000 0.00000000 1.0
4.00000000 0.00000000 1.0
5.00000000 0.00000000 1.0
6.00000000 0.00000000 1.0
7.00000000 0.00000000 1.0
8.00000000 0.00000000 1.0
9.00000000 0.00000000 1.0
10.00000000 0.00000000 1.0
11.00000000 0.00000000 1.0
12.00000000 0.00000000 1.0
13.00000000 0.00000000 1.0
14.00000000 0.00000000 1.0
15.00000000 0.00000000 1.0
16.00000000 0.00000000 1.0
17.00000000 0.00000000 1.0
18.00000000 0.00000000 1.0
19.00000000 0.00000000 1.0
20.00000000 0.00000000 1.0
21.00000000 0.00000000 1.0
22.00000000 0.00000000 1.0
23.00000000 0.00000000 1.0
24.00000000 0.00000000 1.0
25.00000000 0.00000000 1.0
26.00000000 0.00000000 1.0
27.00000000 0.00000000 1.0
28.00000000 0.00000000 1.0
29.00000000 0.00000000 1.0
30.00000000 0.00000000 1.0
31.00000000 0.00000000 1.0
32.00000000 0.00000000 1.0
33.00000000 0.00000000 1.0
34.00000000 0.00000000 1.0
35.00000000 0.00000000 1.0
36.00000000 0.00000000 1.0
37.00000000 0.00000000 1.0
38.00000000 0.00000000 1.0
39.00000000 0.00000000 1.0
0.00000000 1.00000000 1.0
1.00000000 1.00000000 1.0
2.00000000 1.00000000 1.0
3.00000000 1.00000000 1.0
4.00000000 1.00000000 1.0
5.00000000 1.00000000 1.0
6.00000000 1.00000000 1.0
7.00000000 1.00000000 1.0
8.00000000 1.00000000 1.0
9.00000000 1.00000000 1.0
10.00000000 1.00000000 1.0
11.00000000 1.00000000 1.0
12.00000000 1.00000000 1.0
13.00000000 1.00000000 1.0
14.00000000 1.00000000 1.0
15.00000000 1.00000000 1.0
16.00000000 1.00000000 1.0
17.00000000 1.00000000 1.0
18.00000000 1.00000000 1.0
19.00000000 1.00000000 1.0
20.00000000 1.00000000 1.0
21.00000000 1.00000000 1.0
22.00000000 1.00000000 1.0
23.00000000 1.00000000 1.0
24.00000000 1.00000000 1.0
25.00000000 1.00000000 1.0
26.00000000 1.00000000 1.0
27.00000000 1.00000000 1.0
28.00000000 1.00000000 1.0
29.00000000 1.00000000 1.0
30.00000000 1.00000000 1.0
31.00000000 1.00000000 1.0
32.00000000 1.00000000 1.0
33.00000000 1.00000000 1.0
34.00000000 1.00000000 1.0
35.00000000 1.00000000 1.0
36.00000000 1.00000000 1.0
37.00000000 1.00000000 1.0
38.00000000 1.00000000 1.0
39.00000000 1.00000000 1.0
0.00000000 2.00000000 1.0
1.00000000 2.00000000 1.0
2.00000000 2.00000000 1.0
3.00000000 2.00000000 1.0
4.00000000 2.00000000 1.0
5.00000000 2.00000000 1.0
6.00000000 2.00000000 1.0
7.00000000 2.00000000 1.0
8.00000000 2.00000000 1.0
9.00000000 2.00000000 1.0
10.00000000 2.00000000 1.0
11.00000000 2.00000000 1.0
12.00000000 2.00000000 1.0
13.00000000 2.00000000 1.0
14.00000000 2.00000000 1.0
15.00000000 2.00000000 1.0
16.00000000 2.00000000 1.0
17.00000000 2.00000000 1.0
18.00000000 2.00000000 1.0
19.00000000 2.00000000 1.0
20.00000000 2.00000000 1.0
21.00000000 2.00000000 1.0
22.00000000 2.00000000 1.0
23.00000000 2.00000000 1.0
24.00000000 2.00000000 1.0
25.00000000 2.00000000 1.0
26.00000000 2.00000000 1.0
27.00000000 2.00000000 1.0
28.00000000 2.00000000 1.0
29.00000000 2.00000000 1.0
30.00000000 2.00000000 1.0
31.00000000 2.00000000 1.0
32.00000000 2.00000000 1.0
33.00000000 2.00000000 1.0
34.00000000 2.00000000 1.0
35.00000000 2.00000000 1.0
36.00000000 2.00000000 1.0
37.00000000 2.00000000 1.0
38.00000000 2.00000000 1.0
39.00000000 2.00000000 1.0
0.00000000 3.00000000 1.0
1.00000000 3.00000000 1.0
2.00000000 3.00000000 1.0
3.00000000 3.00000000 1.0
4.00000000 3.00000000 1.0
5.00000000 3.00000000 1.0
6.00000000 3.00000000 1.0
7.00000000 3.00000000 1.0
8.00000000 3.00000000 1.0
9.00000000 3.00000000 1.0
10.00000000 3.00000000 1.0
11.00000000 3.00000000 1.0
12.00000000 3.00000000 1.0
13.00000000 3.00000000 1.0
14.00000000 3.00000000 1.0
15.00000000 3.00000000 1.0
16.00000000 3.00000000 1.0
17.00000000 3.00000000 1.0
18.00000000 3.00000000 1.0
19.00000000 3.00000000 1.0
20.00000000 3.00000000 1.0
21.00000000 3.00000000 1.0
22.00000000 3.00000000 1.0
23.00000000 3.00000000 1.0
24.00000000 3.00000000 1.0
25.00000000 3.00000000 1.0
26.00000000 3.00000000 1.0
27.00000000 3.00000000 1.0
28.00000000 3.00000000 1.0
29.00000000 3.00000000 1.0
30.00000000 3.00000000 1.0
31.00000000 3.00000000 1.0
32.00000000 3.00000000 1.0
33.00000000 3.00000000 1.0
34.00000000 3.00000000 1.0
35.00000000 3.00000000 1.0
36.00000000 3.00000000 1.0
37.00000000 3.00000000 1.0
38.00000000 3.00000000 1.0
39.00000000 3.00000000 1.0
0.00000000 4.00000000 1.0
1.00000000 4.00000000 1.0
2.00000000 4.00000000 1.0
3.00000000 4.00000000 1.0
4.00000000 4.00000000 1.0
5.00000000 4.00000000 1.0
6.00000000 4.00000000 1.0
7.00000000 4.00000000 1.0
8.00000000 4.00000000 1.0
9.00000000 4.00000000 1.0
10.00000000 4.00000000 1.0
11.00000000 4.00000000 1.0
12.00000000 4.00000000 1.0
13.00000000 4.00000000 1.0
14.00000000 4.00000000 1.0
15.00000000 4.00000000 1.0
16.00000000 4.00000000 1.0
17.00000000 4.00000000 1.0
18.00000000 4.00000000 1.0
19.00000000 4.00000000 1.0
20.00000000 4.00000000 1.0
21.00000000 4.00000000 1.0
22.00000000 4.00000000 1.0
23.00000000 4.00000000 1.0
24.00000000 4.00000000 1.0
25.00000000 4.00000000 1.0
26.00000000 4.00000000 1.0
27.00000000 4.00000000 1.0
28.00000000 4.00000000 1.0
29.00000000 4.00000000 1.0
30.00000000 4.00000000 1.0
31.00000000 4.00000000 1.0
32.00000000 4.00000000 1.0
33.00000000 4.00000000 1.0
34.00000000 4.00000000 1.0
35.00000000 4.00000000 1.0
36.00000000 4.00000000 1.0
37.00000000 4.00000000 1.0
38.00000000 4.00000000 1.0
39.00000000 4.00000000 1.0
0.00000000 5.00000000 1.0
1.00000000 5.00000000 1.0
2.00000000 5.00000000 1.0
3.00000000 5.00000000 1.0
4.00000000 5.00000000 1.0
5.00000000 5.00000000 1.0
6.00000000 5.00000000 1.0
7.00000000 5.00000000 1.0
8.00000000 5.00000000 1.0
9.00000000 5.00000000 1.0
10.00000000 5.00000000 1.0
11.00000000 5.00000000 1.0
12.00000000 5.00000000 1.0
13.00000000 5.00000000 1.0
14.00000000 5.00000000 1.0
15.00000000 5.00000000 1.0
16.00000000 5.00000000 1.0
17.00000000 5.00000000 1.0
18.00000000 5.00000000 1.0
19.00000000 5.00000000 1.0
20.00000000 5.00000000 1.0
21.00000000 5.00000000 1.0
22.00000000 5.00000000 1.0
23.00000000 5.00000000 1.0
24.00000000 5.00000000 1.0
25.00000000 5.00000000 1.0
26.00000000 5.00000000 1.0
27.00000000 5.00000000 1.0
28.00000000 5.00000000 1.0
29.00000000 5.00000000 1.0
30.00000000 5.00000000 1.0
31.00000000 5.00000000 1.0
32.00000000 5.00000000 1.0
33.00000000 5.00000000 1.0
34.00000000 5.00000000 1.0
35.00000000 5.00000000 1.0
36.00000000 5.00000000 1.0
37.00000000 5.00000000 1.0
38.00000000 5.00000000 1.0
39.00000000 5.00000000 1.0
0.00000000 6.00000000 1.0
1.00000000 6.00000000 1.0
2.00000000 6.00000000 1.0
3.00000000 6.00000000 1.0
4.00000000 6.00000000 1.0
5.00000000 6.00000000 1.0
6.00000000 6.00000000 1.0
7.00000000 6.00000000 1.0
8.00000000 6.00000000 1.0
9.00000000 6.00000000 1.0
10.00000000 6.00000000 1.0
11.00000000 6.00000000 1.0
12.00000000 6.00000000 1.0
13.00000000 6.00000000 1.0
14.00000000 6.00000000 1.0
15.00000000 6.00000000 1.0
16.00000000 6.00000000 1.0
17.00000000 6.00000000 1.0
18.00000000 6.00000000 1.0
19.00000000 6.00000000 1.0
20.00000000 6.00000000 1.0
21.00000000 6.00000000 1.0
22.00000000 6.00000000 1.0
23.00000000 6.00000000 1.0
24.00000000 6.00000000 1.0
25.00000000 6.00000000 1.0
26.00000000 6.00000000 1.0
27.00000000 6.00000000 1.0
28.00000000 6.00000000 1.0
29.00000000 6.00000000 1.0
30.00000000 6.00000000 1.0
31.00000000 6.00000000 1.0
32.00000000 6.00000000 1.0
33.00000000 6.00000000 1.0
34.00000000 6.00000000 1.0
35.00000000 6.00000000 1.0
36.00000000 6.00000000 1.0
37.00000000 6.00000000 1.0
38.00000000 6.00000000 1.0
39.00000000 6.00000000 1.0
0.00000000 7.00000000 1.0
1.00000000 7.00000000 1.0
2.00000000 7.00000000 1.0
3.00000000 7.00000000 1.0
4.00000000 7.00000000 1.0
5.00000000 7.00000000 1.0
6.00000000 7.00000000 1.0
7.00000000 7.00000000 1.0
8.00000000 7.00000000 1.0
9.00000000 7.00000000 1.0
10.00000000 7.00000000 1.0
11.00000000 7.00000000 1.0
12.00000000 7.00000000 1.0
13.00000000 7.00000000 1.0
14.00000000 7.00000000 1.0
15.00000000 7.00000000 1.0
16.00000000 7.00000000 1.0
17.00000000 7.00000000 1.0
18.00000000 7.00000000 1.0
19.00000000 7.00000000 1.0
20.00000000 7.00000000 1.0
21.00000000 7.00000000 1.0
22.00000000 7.00000000 1.0
23.00000000 7.00000000 1.0
24.00000000 7.00000000 1.0
25.00000000 7.00000000 1.0
26.00000000 7.00000000 1.0
27.00000000 7.00000000 1.0
28.00000000 7.00000000 1.0
29.00000000 7.00000000 1.0
30.00000000 7.00000000 1.0
31.00000000 7.00000000 1.0
32.00000000 7.00000000 1.0
33.00000000 7.00000000 1.0
34.00000000 7.00000000 1.0
35.00000000 7.00000000 1.0
36.00000000 7.00000000 1.0
37.00000000 7.00000000 1.0
38.00000000 7.00000000 1.0
39.00000000 7.00000000 1.0
0.00000000 8.00000000 1.0
1.00000000 8.00000000 1.0
2.00000000 8.00000000 1.0
3.00000000 8.00000000 1.0
4.00000000 8.00000000 1.0
5.00000000 8.00000000 1.0
6.00000000 8.00000000 1.0
7.00000000 8.00000000 1.0
8.00000000 8.00000000 1.0
9.00000000 8.00000000 1.0
10.00000000 8.00000000 1.0
11.00000000 8.00000000 1.0
12.00000000 8.00000000 1.0
13.00000000 8.00000000 1.0
14.00000000 8.00000000 1.0
15.00000000 8.00000000 1.0
16.00000000 8.00000000 1.0
17.00000000 8.00000000 1.0
18.00000000 8.00000000 1.0
19.00000000 8.00000000 1.0
20.00000000 8.00000000 1.0
21.00000000 8.00000000 1.0
22.00000000 8.00000000 1.0
23.00000000 8.00000000 1.0
24.00000000 8.00000000 1.0
25.00000000 8.00000000 1.0
26.00000000 8.00000000 1.0
27.00000000 8.00000000 1.0
28.00000000 8.00000000 1.0
29.00000000 8.00000000 1.0
30.00000000 8.00000000 1.0
31.00000000 8.00000000 1.0
32.00000000 8.00000000 1.0
33.00000000 8.00000000 1.0
34.00000000 8.00000000 1.0
35.00000000 8.00000000 1.0
36.00000000 8.00000000 1.0
37.00000000 8.00000000 1.0
38.00000000 8.00000000 1.0
39.00000000 8.00000000 1.0
0.00000000 9.00000000 1.0
1.00000000 9.00000000 1.0
2.00000000 9.00000000 1.0
3.00000000 9.00000000 1.0
4.00000000 9.00000000 1.0
5.00000000 9.00000000 1.0
6.00000000 9.00000000 1.0
7.00000000 9.00000000 1.0
8.00000000 9.00000000 1.0
[...]
POINT_DATA 1600
VECTORS velocity double
0.00000000 0.00003146 0.0
0.00000027 -0.00003159 0.0
0.00000051 -0.00001083 0.0
0.00000067 0.00005206 0.0
0.00000072 0.00012777 0.0
0.00000069 0.00020138 0.0
0.00000058 0.00026596 0.0
0.00000043 0.00031852 0.0
0.00000024 0.00035793 0.0
0.00000003 0.00038405 0.0
-0.00000019 0.00039725 0.0
-0.00000041 0.00039822 0.0
-0.00000062 0.00038785 0.0
-0.00000082 0.00036717 0.0
-0.00000101 0.00033726 0.0
-0.00000117 0.00029931 0.0
-0.00000131 0.00025451 0.0
-0.00000142 0.00020408 0.0
-0.00000150 0.00014925 0.0
-0.00000155 0.00009126 0.0
-0.00000156 0.00003136 0.0
-0.00000155 -0.00002921 0.0
-0.00000150 -0.00008920 0.0
-0.00000142 -0.00014734 0.0
-0.00000131 -0.00020239 0.0
-0.00000117 -0.00025307 0.0
-0.00000101 -0.00029812 0.0
-0.00000083 -0.00033631 0.0
-0.00000062 -0.00036638 0.0
-0.00000041 -0.00038717 0.0
-0.00000019 -0.00039753 0.0
0.00000003 -0.00039646 0.0
0.00000024 -0.00038306 0.0
0.00000043 -0.00035666 0.0
0.00000058 -0.00031692 0.0
0.00000069 -0.00026403 0.0
0.00000072 -0.00019916 0.0
0.00000067 -0.00012536 0.0
0.00000051 -0.00004960 0.0
0.00000026 0.00001312 0.0
0.00000000 0.00009585 0.0
0.00010675 -0.00009645 0.0
0.00008268 0.00002782 0.0
-0.00015098 0.00030133 0.0
-0.00062916 0.00062290 0.0
-0.00134694 0.00093755 0.0
-0.00227796 0.00121674 0.0
-0.00338482 0.00144630 0.0
-0.00462501 0.00161990 0.0
-0.00595441 0.00173570 0.0
-0.00732937 0.00179452 0.0
-0.00870807 0.00179885 0.0
-0.01005141 0.00175231 0.0
-0.01132358 0.00165921 0.0
-0.01249249 0.00152440 0.0
-0.01353001 0.00135303 0.0
-0.01441214 0.00115050 0.0
-0.01511913 0.00092231 0.0
-0.01563556 0.00067408 0.0
-0.01595033 0.00041143 0.0
-0.01605671 0.00014006 0.0
-0.01595239 -0.00013435 0.0
-0.01563943 -0.00040607 0.0
-0.01512431 -0.00066938 0.0
-0.01441794 -0.00091851 0.0
-0.01353565 -0.00114774 0.0
-0.01249717 -0.00135133 0.0
-0.01132658 -0.00152365 0.0
-0.01005218 -0.00165919 0.0
-0.00870632 -0.00175268 0.0
-0.00732511 -0.00179922 0.0
-0.00594797 -0.00179445 0.0
-0.00461703 -0.00173479 0.0
-0.00337617 -0.00161782 0.0
-0.00226966 -0.00144287 0.0
-0.00134002 -0.00121196 0.0
-0.00062447 -0.00093161 0.0
-0.00014904 -0.00061624 0.0
0.00008188 -0.00029463 0.0
0.00010397 -0.00002206 0.0
0.00000000 0.00010107 0.0
0.00003239 -0.00010221 0.0
-0.00020837 0.00026857 0.0
-0.00081738 0.00091035 0.0
-0.00183671 0.00164223 0.0
-0.00325725 0.00235809 0.0
-0.00503768 0.00299717 0.0
-0.00711741 0.00352602 0.0
-0.00942538 0.00392787 0.0
-0.01188598 0.00419629 0.0
-0.01442300 0.00433154 0.0
-0.01696241 0.00433826 0.0
-0.01943423 0.00422413 0.0
-0.02177388 0.00399886 0.0
-0.02392307 0.00367359 0.0
-0.02583049 0.00326045 0.0
-0.02745220 0.00277221 0.0
-0.02875194 0.00222205 0.0
-0.02970131 0.00162344 0.0
-0.03027987 0.00099000 0.0
-0.03047526 0.00033545 0.0
-0.03028320 -0.00032641 0.0
-0.02970752 -0.00098175 0.0
-0.02876024 -0.00161666 0.0
-0.02746147 -0.00221728 0.0
-0.02583945 -0.00276976 0.0
-0.02393042 -0.00326036 0.0
-0.02177844 -0.00367562 0.0
-0.01943514 -0.00400250 0.0
-0.01695917 -0.00422864 0.0
-0.01441564 -0.00434276 0.0
-0.01187502 -0.00433506 0.0
-0.00941186 -0.00419795 0.0
-0.00710273 -0.00392695 0.0
-0.00502348 -0.00352212 0.0
-0.00324515 -0.00299029 0.0
-0.00182804 -0.00234872 0.0
-0.00081289 -0.00163139 0.0
-0.00020792 -0.00089960 0.0
0.00003003 -0.00026001 0.0
0.00000000 -0.00002855 0.0
-0.00010497 0.00002713 0.0
-0.00065800 0.00082160 0.0
-0.00172418 0.00197653 0.0
-0.00333013 0.00324817 0.0
-0.00545456 0.00448253 0.0
-0.00804195 0.00558456 0.0
-0.01101394 0.00649802 0.0
-0.01427841 0.00719234 0.0
-0.01773629 0.00765418 0.0
-0.02128673 0.00788197 0.0
-0.02483078 0.00788232 0.0
-0.02827423 0.00766758 0.0
-0.03152956 0.00725419 0.0
-0.03451743 0.00666146 0.0
-0.03716769 0.00591071 0.0
-0.03942010 0.00502461 0.0
-0.04122482 0.00402677 0.0
-0.04254277 0.00294139 0.0
-0.04334580 0.00179303 0.0
-0.04361686 0.00060651 0.0
-0.04335006 -0.00059321 0.0
-0.04255075 -0.00178106 0.0
-0.04123549 -0.00293193 0.0
-0.03943204 -0.00402073 0.0
-0.03717929 -0.00502251 0.0
-0.03452703 -0.00591263 0.0
-0.03153565 -0.00666700 0.0
-0.02827567 -0.00726248 0.0
-0.02482694 -0.00767738 0.0
-0.02127758 -0.00789211 0.0
-0.01772247 -0.00789016 0.0
-0.01426116 -0.00765926 0.0
-0.01099502 -0.00719310 0.0
-0.00802337 -0.00649377 0.0
-0.00543835 -0.00557531 0.0
-0.00331797 -0.00446910 0.0
-0.00171706 -0.00323230 0.0
-0.00065587 -0.00196079 0.0
-0.00010657 -0.00080931 0.0
0.00000000 -0.00030683 0.0
-0.00025665 0.00030530 0.0
-0.00115836 0.00172331 0.0
-0.00272021 0.00353837 0.0
-0.00493790 0.00546586 0.0
-0.00776905 0.00731368 0.0
-0.01114051 0.00895602 0.0
-0.01495667 0.01031418 0.0
-0.01910732 0.01134298 0.0
-0.02347432 0.01202119 0.0
-0.02793713 0.01234478 0.0
-0.03237705 0.01232223 0.0
-0.03668054 0.01197107 0.0
-0.04074180 0.01131545 0.0
-0.04446457 0.01038423 0.0
-0.04776354 0.00920968 0.0
-0.05056531 0.00782638 0.0
-0.05280907 0.00627053 0.0
-0.05444706 0.00457938 0.0
-0.05544487 0.00279084 0.0
-0.05578164 0.00094328 0.0
-0.05545019 -0.00092466 0.0
-0.05445707 -0.00277418 0.0
-0.05282254 -0.00456645 0.0
-0.05058058 -0.00626270 0.0
-0.04777866 -0.00782443 0.0
-0.04447755 -0.00921374 0.0
-0.04075082 -0.01039373 0.0
-0.03668418 -0.01132912 0.0
-0.03237445 -0.01198710 0.0
-0.02792816 -0.01233840 0.0
-0.02345960 -0.01235872 0.0
-0.01908820 -0.01203066 0.0
-0.01493512 -0.01134618 0.0
-0.01111885 -0.01031004 0.0
-0.00774965 -0.00894451 0.0
-0.00492279 -0.00729596 0.0
-0.00271072 -0.00544437 0.0
-0.00115469 -0.00351682 0.0
-0.00025761 -0.00170638 0.0
0.00000000 -0.00073013 0.0
-0.00040486 0.00072865 0.0
-0.00166088 0.00297933 0.0
-0.00372962 0.00560711 0.0
-0.00656801 0.00830426 0.0
-0.01010579 0.01085146 0.0
-0.01424785 0.01309808 0.0
-0.01887958 0.01494591 0.0
-0.02387301 0.01633641 0.0
-0.02909274 0.01724092 0.0
-0.03440127 0.01765331 0.0
-0.03966337 0.01758432 0.0
-0.04474967 0.01705737 0.0
-0.04953946 0.01610525 0.0
-0.05392287 0.01476764 0.0
-0.05780239 0.01308920 0.0
-0.06109408 0.01111807 0.0
-0.06372835 0.00890480 0.0
-0.06565051 0.00650154 0.0
-0.06682117 0.00396150 0.0
-0.06721644 0.00133855 0.0
-0.06682807 -0.00131303 0.0
-0.06566355 -0.00393870 0.0
-0.06374610 -0.00648391 0.0
-0.06111458 -0.00889422 0.0
-0.05782333 -0.01111567 0.0
-0.05394187 -0.01309520 0.0
-0.04955429 -0.01478130 0.0
-0.04475852 -0.01612490 0.0
-0.03966507 -0.01708055 0.0
-0.03439544 -0.01760803 0.0
-0.02907987 -0.01767429 0.0
-0.02385445 -0.01725608 0.0
-0.01885742 -0.01634321 0.0
-0.01422466 -0.01494280 0.0
-0.01008430 -0.01308487 0.0
-0.00655068 -0.01082957 0.0
-0.00371819 -0.00827687 0.0
-0.00165591 -0.00557910 0.0
-0.00040532 -0.00295697 0.0
0.00000000 -0.00129004 0.0
-0.00054454 0.00128870 0.0
-0.00214725 0.00458204 0.0
-0.00471986 0.00817972 0.0
-0.00817808 0.01176249 0.0
-0.01241961 0.01509299 0.0
-0.01732373 0.01800220 0.0
-0.02275440 0.02037658 0.0
-0.02856487 0.02214687 0.0
-0.03460270 0.02327875 0.0
-0.04071458 0.02376519 0.0
-0.04675059 0.02362034 0.0
-0.05256776 0.02287454 0.0
-0.05803295 0.02157043 0.0
-0.06302507 0.01975977 0.0
-0.06743681 0.01750094 0.0
-0.07117579 0.01485706 0.0
-0.07416551 0.01189451 0.0
-0.07634584 0.00868187 0.0
-0.07767347 0.00528914 0.0
-0.07812215 0.00178723 0.0
-0.07768280 -0.00175238 0.0
-0.07636359 -0.00525791 0.0
-0.07418999 -0.00865751 0.0
-0.07120466 -0.01187955 0.0
-0.06746728 -0.01485305 0.0
-0.06305423 -0.01750826 0.0
-0.05805799 -0.01977754 0.0
-0.05258634 -0.02159656 0.0
-0.04676102 -0.02290587 0.0
-0.04071608 -0.02365297 0.0
-0.03459548 -0.02379489 0.0
-0.02855017 -0.02330139 0.0
-0.02273435 -0.02215903 0.0
-0.01730113 -0.02037603 0.0
-0.01239756 -0.01798843 0.0
-0.00815955 -0.01506759 0.0
-0.00470710 -0.01172932 0.0
-0.00214130 -0.00814491 0.0
-0.00054462 -0.00455365 0.0
0.00000000 -0.00197828 0.0
-0.00067563 0.00197715 0.0
-0.00261389 0.00652029 0.0
-0.00568208 0.01124791 0.0
-0.00975515 0.01583556 0.0
-0.01469674 0.02003457 0.0
-0.02035784 0.02366330 0.0
-0.02657868 0.02659741 0.0
-0.03319216 0.02876035 0.0
-0.04002816 0.03011476 0.0
-0.04691780 0.03065483 0.0
-0.05369730 0.03039984 0.0
-0.06021145 0.02938869 0.0
-0.06631633 0.02767531 0.0
-0.07188150 0.02532493 0.0
-0.07679163 0.02241107 0.0
-0.08094770 0.01901312 0.0
-0.08426777 0.01521458 0.0
-0.08668757 0.01110168 0.0
-0.08816083 0.00676240 0.0
-0.08865948 0.00228587 0.0
-0.08817377 -0.00223809 0.0
-0.08671237 -0.00671931 0.0
-0.08430237 -0.01106751 0.0
-0.08098924 -0.01519267 0.0
-0.07683671 -0.01900558 0.0
-0.07192645 -0.02241852 0.0
-0.06635758 -0.02534641 0.0
-0.06024585 -0.02770828 0.0
-0.05372245 -0.02942927 0.0
-0.04693228 -0.03044313 0.0
-0.04003174 -0.03069543 0.0
-0.03318579 -0.03014735 0.0
-0.02656444 -0.02878037 0.0
-0.02033874 -0.02660174 0.0
-0.01467626 -0.02365091 0.0
-0.00973682 -0.02000702 0.0
-0.00566883 -0.01579731 0.0
-0.00260735 -0.01120638 0.0
-0.00067544 -0.00648556 0.0
0.00000000 -0.00278847 0.0
-0.00079992 0.00278761 0.0
-0.00306394 0.00878431 0.0
-0.00661967 0.01480364 0.0
-0.01130278 0.02051866 0.0
-0.01694204 0.02567383 0.0
-0.02335836 0.03007962 0.0
-0.03036620 0.03360526 0.0
-0.03777658 0.03617073 0.0
-0.04540067 0.03773885 0.0
-0.05305364 0.03830779 0.0
-0.06055818 0.03790438 0.0
-0.06774759 0.03657810 0.0
-0.07446833 0.03439605 0.0
-0.08058196 0.03143857 0.0
-0.08596664 0.02779574 0.0
-0.09051808 0.02356457 0.0
-0.09415030 0.01884680 0.0
-0.09679597 0.01374734 0.0
-0.09840665 0.00837308 0.0
-0.09895297 0.00283220 0.0
-0.09842470 -0.00276637 0.0
-0.09683075 -0.00831326 0.0
-0.09419930 -0.01369896 0.0
-0.09057775 -0.01881422 0.0
-0.08603272 -0.02355061 0.0
-0.08064983 -0.02780141 0.0
-0.07453335 -0.03146289 0.0
-0.06780556 -0.03443608 0.0
-0.06060567 -0.03662915 0.0
-0.05308837 -0.03796044 0.0
-0.04542167 -0.03836212 0.0
-0.03778435 -0.03778466 0.0
-0.03036266 -0.03620207 0.0
-0.02334659 -0.03361780 0.0
-0.01692598 -0.03007153 0.0
-0.01128659 -0.02564641 0.0
-0.00660706 -0.02047684 0.0
-0.00305735 -0.01475610 0.0
-0.00079959 -0.00874332 0.0
0.00000000 -0.00371669 0.0
-0.00091971 0.00371615 0.0
-0.00350331 0.01136792 0.0
-0.00754183 0.01884215 0.0
-0.01283302 0.02580986 0.0
-0.01917051 0.03201132 0.0
-0.02634375 0.03725287 0.0
-0.03413986 0.04140136 0.0
-0.04234639 0.04437726 0.0
-0.05075473 0.04614720 0.0
-0.05916357 0.04671663 0.0
-0.06738201 0.04612282 0.0
-0.07523237 0.04442846 0.0
-0.08255231 0.04171599 0.0
-0.08919654 0.03808279 0.0
-0.09503791 0.03363711 0.0
-0.09996821 0.02849487 0.0
-0.10389854 0.02277713 0.0
-0.10675952 0.01660832 0.0
-0.10850135 0.01011491 0.0
-0.10909381 0.00342467 0.0
-0.10852630 -0.00333389 0.0
-0.10680780 -0.01003175 0.0
-0.10396703 -0.01653972 0.0
-0.10005253 -0.02272873 0.0
-0.09513271 -0.02847043 0.0
-0.08929592 -0.03363820 0.0
-0.08265030 -0.03810851 0.0
-0.07532335 -0.04176303 0.0
-0.06746121 -0.04449128 0.0
-0.05922748 -0.04619418 0.0
-0.05080140 -0.04678820 0.0
-0.04237560 -0.04621046 0.0
-0.03415317 -0.04442450 0.0
-0.02634429 -0.04142668 0.0
-0.01916257 -0.03725324 0.0
-0.01282150 -0.03198748 0.0
-0.00753137 -0.02576697 0.0
-0.00349737 -0.01879010 0.0
-0.00091944 -0.01132125 0.0
0.00000000 -0.00476142 0.0
-0.00103734 0.00476126 0.0
-0.00393876 0.01426934 0.0
-0.00846001 0.02336340 0.0
-0.01436170 0.03171154 0.0
-0.02140182 0.03905144 0.0
-0.02933728 0.04518833 0.0
-0.03792634 0.04999042 0.0
-0.04693174 0.05338266 0.0
-0.05612405 0.05533951 0.0
-0.06528486 0.05587743 0.0
-0.07420962 0.05504759 0.0
-0.08271002 0.05292886 0.0
-0.09061572 0.04962169 0.0
-0.09777557 0.04524264 0.0
-0.10405835 0.03991990 0.0
-0.10935313 0.03378964 0.0
-0.11356925 0.02699326 0.0
-0.11663629 0.01967536 0.0
-0.11850382 0.01198244 0.0
-0.11914125 0.00406210 0.0
-0.11853773 -0.00393741 0.0
-0.11670211 -0.01186737 0.0
-0.11366314 -0.01957869 0.0
-0.10946964 -0.02692223 0.0
-0.10419080 -0.03374927 0.0
-0.09791650 -0.03991251 0.0
-0.09075743 -0.04526758 0.0
-0.08284513 -0.04967532 0.0
-0.07433163 -0.05300479 0.0
-0.06538864 -0.05513716 0.0
-0.05620632 -0.05597053 0.0
-0.04699127 -0.05542551 0.0
-0.03796409 -0.05345168 0.0
-0.02935625 -0.05003452 0.0
-0.02140667 -0.04520283 0.0
-0.01435806 -0.03903609 0.0
-0.00845364 -0.03167138 0.0
-0.00393439 -0.02330935 0.0
-0.00103739 -0.01421826 0.0
0.00000000 -0.00592343 0.0
-0.00115498 0.00592369 0.0
-0.00437698 0.01749135 0.0
-0.00938611 0.02837253 0.0
-0.01590559 0.03823103 0.0
-0.02365697 0.04680282 0.0
-0.03236327 0.05389463 0.0
-0.04175250 0.05937966 0.0
-0.05156132 0.06319148 0.0
-0.06153850 0.06531669 0.0
-0.07144806 0.06578699 0.0
-0.08107181 0.06467134 0.0
-0.09021128 0.06206833 0.0
-0.09868896 0.05809936 0.0
-0.10634898 0.05290267 0.0
-0.11305733 0.04662825 0.0
-0.11870163 0.03943394 0.0
-0.12319073 0.03148236 0.0
-0.12645420 0.02293883 0.0
-0.12844179 0.01397003 0.0
-0.12912302 0.00474333 0.0
-0.12848693 -0.00457350 0.0
-0.12654205 -0.01381224 0.0
-0.12331658 -0.02280416 0.0
-0.11885877 -0.03138004 0.0
-0.11323748 -0.03937056 0.0
-0.10654278 -0.04660720 0.0
-0.09888663 -0.05292374 0.0
-0.09040326 -0.05815870 0.0
-0.08124942 -0.06215863 0.0
-0.07160415 -0.06478243 0.0
-0.06166802 -0.06590666 0.0
-0.05166167 -0.06543186 0.0
-0.04182376 -0.06328959 0.0
-0.03240809 -0.05945019 0.0
-0.02368025 -0.05393067 0.0
-0.01591379 -0.04680255 0.0
-0.00938623 -0.03819893 0.0
-0.00437533 -0.02832025 0.0
-0.00115567 -0.01743792 0.0
0.00000000 -0.00720550 0.0
-0.00127455 0.00720623 0.0
-0.00482421 0.02104100 0.0
-0.01033150 0.03387982 0.0
-0.01748098 0.04538050 0.0
-0.02595623 0.05527807 0.0
-0.03544479 0.06338318 0.0
-0.04564287 0.06957774 0.0
-0.05625979 0.07380840 0.0
-0.06702171 0.07607861 0.0
-0.07767480 0.07644008 0.0
-0.08798743 0.07498397 0.0
-0.09775168 0.07183258 0.0
-0.10678396 0.06713164 0.0
-0.11492505 0.06104376 0.0
-0.12203961 0.05374281 0.0
-0.12801535 0.04540968 0.0
-0.13276201 0.03622902 0.0
-0.13621035 0.02638716 0.0
-0.13831119 0.01607087 0.0
-0.13903471 0.00546685 0.0
-0.13837002 -0.00523819 0.0
-0.13632508 -0.01585718 0.0
-0.13292693 -0.02620231 0.0
-0.12822229 -0.03608468 0.0
-0.12227842 -0.04531444 0.0
-0.11518416 -0.05370145 0.0
-0.10705112 -0.06105678 0.0
-0.09801470 -0.06719512 0.0
-0.08823500 -0.07193833 0.0
-0.07789727 -0.07512016 0.0
-0.06721178 -0.07659215 0.0
-0.05641306 -0.07623058 0.0
-0.04575815 -0.07394449 0.0
-0.03552414 -0.06968420 0.0
-0.02600467 -0.06345015 0.0
-0.01750574 -0.05530147 0.0
-0.01034103 -0.04536365 0.0
-0.00482671 -0.03383457 0.0
-0.00127628 -0.02098835 0.0
0.00000000 -0.00861221 0.0
-0.00139779 0.00861346 0.0
-0.00528617 0.02492939 0.0
-0.01130670 0.03990035 0.0
-0.01910290 0.05317670 0.0
-0.02831809 0.06449326 0.0
-0.03860221 0.07366731 0.0
-0.04961794 0.08059348 0.0
-0.06104596 0.08523642 0.0
-0.07258918 0.08762183 0.0
-0.08397583 0.08782673 0.0
-0.09496143 0.08596958 0.0
-0.10532968 0.08220082 0.0
-0.11489237 0.07669433 0.0
-0.12348866 0.06964005 0.0
-0.13098374 0.06123789 0.0
-0.13726722 0.05169316 0.0
-0.14225138 0.04121319 0.0
-0.14586957 0.03000535 0.0
-0.14807473 0.01827602 0.0
-0.14883835 0.00623046 0.0
-0.14814981 -0.00592673 0.0
-0.14601623 -0.01799076 0.0
-0.14246280 -0.02975574 0.0
-0.13753359 -0.04101389 0.0
-0.13129280 -0.05155523 0.0
-0.12382632 -0.06116793 0.0
-0.11524352 -0.06963958 0.0
-0.10567908 -0.07675955 0.0
-0.09529466 -0.08232275 0.0
-0.08428019 -0.08613463 0.0
-0.07285462 -0.08801772 0.0
-0.06126576 -0.08781944 0.0
-0.04978921 -0.08542104 0.0
-0.03872608 -0.08074734 0.0
-0.02839944 -0.07377678 0.0
-0.01914975 -0.06455117 0.0
-0.01132906 -0.05318434 0.0
-0.00529449 -0.03986914 0.0
-0.00140104 -0.02488180 0.0
0.00000000 -0.01014981 0.0
-0.00152622 0.01015165 0.0
-0.00576806 0.02917123 0.0
-0.01232129 0.04645358 0.0
-0.02078487 0.06164028 0.0
-0.03075870 0.07446709 0.0
-0.04185242 0.08476103 0.0
-0.05369309 0.09243414 0.0
-0.06593145 0.09747477 0.0
-0.07824662 0.09993700 0.0
-0.09034923 0.09992934 0.0
-0.10198291 0.09760326 0.0
-0.11292456 0.09314246 0.0
-0.12298337 0.08675314 0.0
-0.13199911 0.07865579 0.0
-0.13983981 0.06907860 0.0
-0.14639920 0.05825255 0.0
-0.15159413 0.04640811 0.0
-0.15536217 0.03377340 0.0
-0.15765966 0.02057351 0.0
-0.15846014 0.00703094 0.0
-0.15775352 -0.00663335 0.0
-0.15554580 -0.02019849 0.0
-0.15185949 -0.03344205 0.0
-0.14673473 -0.04613865 0.0
-0.14023091 -0.05805904 0.0
-0.13242892 -0.06896993 0.0
-0.12343358 -0.07863491 0.0
-0.11337646 -0.08681667 0.0
-0.10241845 -0.09328076 0.0
-0.09075214 -0.09780094 0.0
-0.07860351 -0.10016636 0.0
-0.06623270 -0.10019024 0.0
-0.05393362 -0.09772012 0.0
-0.04203196 -0.09264899 0.0
-0.03088177 -0.08492698 0.0
-0.02086013 -0.07457281 0.0
-0.01236043 -0.06168403 0.0
-0.00578415 -0.04644543 0.0
-0.00153155 -0.02913439 0.0
0.00000000 -0.01182606 0.0
-0.00166127 0.01182856 0.0
-0.00627470 0.03378466 0.0
-0.01338404 0.05356291 0.0
-0.02253898 0.07079522 0.0
-0.03329179 0.08521990 0.0
-0.04520841 0.09667765 0.0
-0.05787785 0.10510358 0.0
-0.07091955 0.11051648 0.0
-0.08398858 0.11300603 0.0
-0.09677864 0.11271939 0.0
-0.10902306 0.10984768 0.0
-0.12049416 0.10461356 0.0
-0.13100120 0.09726019 0.0
-0.14038746 0.08804204 0.0
-0.14852669 0.07721783 0.0
-0.15531949 0.06504535 0.0
-0.16068967 0.05177829 0.0
-0.16458106 0.03766479 0.0
-0.16695484 0.02294728 0.0
-0.16778753 0.00786364 0.0
-0.16706987 -0.00735101 0.0
-0.16480640 -0.02246196 0.0
-0.16101605 -0.03723239 0.0
-0.15573349 -0.05142121 0.0
-0.14901128 -0.06478125 0.0
-0.14092277 -0.07705844 0.0
-0.13156547 -0.08799221 0.0
-0.12106481 -0.09731734 0.0
-0.10957795 -0.10476761 0.0
-0.09729739 -0.11008151 0.0
-0.08445384 -0.11300990 0.0
-0.07131821 -0.11332588 0.0
-0.05820197 -0.11083636 0.0
-0.04545585 -0.10539511 0.0
-0.03346629 -0.09691654 0.0
-0.02264970 -0.08538939 0.0
-0.01344444 -0.07088929 0.0
-0.00630080 -0.05358907 0.0
-0.00166933 -0.03376586 0.0
0.00000000 -0.01365027 0.0
-0.00180431 0.01365350 0.0
-0.00681073 0.03879108 0.0
-0.01450323 0.06125541 0.0
-0.02437610 0.08066809 0.0
-0.03592870 0.09677250 0.0
-0.04867908 0.10942803 0.0
-0.06217537 0.11859987 0.0
-0.07600432 0.12434542 0.0
-0.08979695 0.12679867 0.0
-0.10323133 0.12615377 0.0
-0.11603281 0.12264916 0.0
-0.12797215 0.11655291 0.0
-0.13886219 0.10815022 0.0
-0.14855334 0.09773319 0.0
-0.15692870 0.08559319 0.0
-0.16389905 0.07201569 0.0
-0.16939807 0.05727731 0.0
-0.17337820 0.04164492 0.0
-0.17580720 0.02537628 0.0
-0.17666565 0.00872209 0.0
-0.17594545 -0.00807121 0.0
-0.17364938 -0.02475803 0.0
-0.16979168 -0.04109009 0.0
-0.16439982 -0.05681308 0.0
-0.15751713 -0.07166394 0.0
-0.14920648 -0.08536910 0.0
-0.13955461 -0.09764408 0.0
-0.12867716 -0.10819479 0.0
-0.11672376 -0.11672100 0.0
-0.10388321 -0.12292207 0.0
-0.09038782 -0.12650528 0.0
-0.07651688 -0.12719683 0.0
-0.06259817 -0.12475507 0.0
-0.04900747 -0.11898581 0.0
-0.03616516 -0.10975884 0.0
-0.02453002 -0.09702454 0.0
-0.01458983 -0.08082948 0.0
-0.00684934 -0.06132957 0.0
-0.00181583 -0.03879936 0.0
0.00000000 -0.01563328 0.0
-0.00195675 0.01563733 0.0
-0.00738089 0.04421522 0.0
-0.01568700 0.06956151 0.0
-0.02630635 0.09128744 0.0
-0.03867876 0.10914491 0.0
-0.05226931 0.12301858 0.0
-0.06658198 0.13291255 0.0
-0.08116953 0.13893297 0.0
-0.09563941 0.14126855 0.0
-0.10965609 0.14017045 0.0
-0.12294017 0.13593323 0.0
-0.13526493 0.12887768 0.0
-0.14645123 0.11933652 0.0
-0.15636122 0.10764319 0.0
-0.16489173 0.09412370 0.0
-0.17196768 0.07909164 0.0
-0.17753603 0.06284567 0.0
-0.18156057 0.04566946 0.0
-0.18401767 0.02783338 0.0
-0.18489319 0.00959761 0.0
-0.18418063 -0.00878376 0.0
-0.18188061 -0.02705805 0.0
-0.17800153 -0.04496917 0.0
-0.17256164 -0.06225297 0.0
-0.16559230 -0.07863328 0.0
-0.15714242 -0.09381898 0.0
-0.14728395 -0.10750255 0.0
-0.13611818 -0.11936056 0.0
-0.12378253 -0.12905665 0.0
-0.11045743 -0.13624717 0.0
-0.09637263 -0.14059008 0.0
-0.08181241 -0.14175705 0.0
-0.06711880 -0.13944867 0.0
-0.05269215 -0.13341246 0.0
-0.03898828 -0.12346272 0.0
-0.02651175 -0.10950107 0.0
-0.01580518 -0.09153604 0.0
-0.00743474 -0.06970001 0.0
-0.00197255 -0.04426155 0.0
0.00000000 -0.01778770 0.0
-0.00212017 0.01779268 0.0
-0.00799031 0.05008536 0.0
-0.01694391 0.07851512 0.0
-0.02833965 0.10268318 0.0
-0.04154963 0.12235489 0.0
-0.05597989 0.13744884 0.0