# vtk DataFile Version 4.0
2D velocity field
ASCII
DATASET STRUCTURED_GRID
DIMENSIONS 40 40 1
POINTS 1600 float
0.00000000 0.00000000 1.0
1.00000000 0.00000000 1.0
2.00000000 0.00000000 1.0
3.00000000 0.00000000 1.0
4.00000000 0.00000000 1.0
5.00000000 0.00000000 1.0
6.00000000 0.00000000 1.0
7.00000000 0.00000000 1.0
8.00000000 0.00000000 1.0
9.00000000 0.00000000 1.0
10.00000000 0.00000000 1.0
11.00000000 0.00000000 1.0
12.00000000 0.00000000 1.0
13.00000000 0.00000000 1.0
14.00000000 0.00000000 1.0
15.00000000 0.00000000 1.0
16.00000000 0.00000000 1.0
17.00000000 0.00000000 1.0
18.00000000 0.00000000 1.0
19.00000000 0.00000000 1.0
20.00000000 0.00000000 1.0
21.00000000 0.00000000 1.0
22.00000000 0.00000000 1.0
23.00000000 0.00000000 1.0
24.00000000 0.00000000 1.0
25.00000000 0.00000000 1.0
26.00000000 0.00000000 1.0
27.00000000 0.00000000 1.0
28.00000000 0.00000000 1.0
29.00000000 0.00000000 1.0
30.00000000 0.00000000 1.0
31.00000000 0.00000000 1.0
32.00000000 0.00000000 1.0
33.00000000 0.00000000 1.0
34.00000000 0.00000000 1.0
35.00000000 0.00000000 1.0
36.00000000 0.00000000 1.0
37.00000000 0.00000000 1.0
38.00000000 0.00000000 1.0
39.00000000 0.00000000 1.0
0.00000000 1.00000000 1.0
1.00000000 1.00000000 1.0
2.00000000 1.00000000 1.0
3.00000000 1.00000000 1.0
4.00000000 1.00000000 1.0
5.00000000 1.00000000 1.0
6.00000000 1.00000000 1.0
7.00000000 1.00000000 1.0
8.00000000 1.00000000 1.0
9.00000000 1.00000000 1.0
10.00000000 1.00000000 1.0
11.00000000 1.00000000 1.0
12.00000000 1.00000000 1.0
13.00000000 1.00000000 1.0
14.00000000 1.00000000 1.0
15.00000000 1.00000000 1.0
16.00000000 1.00000000 1.0
17.00000000 1.00000000 1.0
18.00000000 1.00000000 1.0
19.00000000 1.00000000 1.0
20.00000000 1.00000000 1.0
21.00000000 1.00000000 1.0
22.00000000 1.00000000 1.0
23.00000000 1.00000000 1.0
24.00000000 1.00000000 1.0
25.00000000 1.00000000 1.0
26.00000000 1.00000000 1.0
27.00000000 1.00000000 1.0
28.00000000 1.00000000 1.0
29.00000000 1.00000000 1.0
30.00000000 1.00000000 1.0
31.00000000 1.00000000 1.0
32.00000000 1.00000000 1.0
33.00000000 1.00000000 1.0
34.00000000 1.00000000 1.0
35.00000000 1.00000000 1.0
36.00000000 1.00000000 1.0
37.00000000 1.00000000 1.0
38.00000000 1.00000000 1.0
39.00000000 1.00000000 1.0
0.00000000 2.00000000 1.0
1.00000000 2.00000000 1.0
2.00000000 2.00000000 1.0
3.00000000 2.00000000 1.0
4.00000000 2.00000000 1.0
5.00000000 2.00000000 1.0
6.00000000 2.00000000 1.0
7.00000000 2.00000000 1.0
8.00000000 2.00000000 1.0
9.00000000 2.00000000 1.0
10.00000000 2.00000000 1.0
11.00000000 2.00000000 1.0
12.00000000 2.00000000 1.0
13.00000000 2.00000000 1.0
14.00000000 2.00000000 1.0
15.00000000 2.00000000 1.0
16.00000000 2.00000000 1.0
17.00000000 2.00000000 1.0
18.00000000 2.00000000 1.0
19.00000000 2.00000000 1.0
20.00000000 2.00000000 1.0
21.00000000 2.00000000 1.0
22.00000000 2.00000000 1.0
23.00000000 2.00000000 1.0
24.00000000 2.00000000 1.0
25.00000000 2.00000000 1.0
26.00000000 2.00000000 1.0
27.00000000 2.00000000 1.0
28.00000000 2.00000000 1.0
29.00000000 2.00000000 1.0
30.00000000 2.00000000 1.0
31.00000000 2.00000000 1.0
32.00000000 2.00000000 1.0
33.00000000 2.00000000 1.0
34.00000000 2.00000000 1.0
35.00000000 2.00000000 1.0
36.00000000 2.00000000 1.0
37.00000000 2.00000000 1.0
38.00000000 2.00000000 1.0
39.00000000 2.00000000 1.0
0.00000000 3.00000000 1.0
1.00000000 3.00000000 1.0
2.00000000 3.00000000 1.0
3.00000000 3.00000000 1.0
4.00000000 3.00000000 1.0
5.00000000 3.00000000 1.0
6.00000000 3.00000000 1.0
7.00000000 3.00000000 1.0
8.00000000 3.00000000 1.0
9.00000000 3.00000000 1.0
10.00000000 3.00000000 1.0
11.00000000 3.00000000 1.0
12.00000000 3.00000000 1.0
13.00000000 3.00000000 1.0
14.00000000 3.00000000 1.0
15.00000000 3.00000000 1.0
16.00000000 3.00000000 1.0
17.00000000 3.00000000 1.0
18.00000000 3.00000000 1.0
19.00000000 3.00000000 1.0
20.00000000 3.00000000 1.0
21.00000000 3.00000000 1.0
22.00000000 3.00000000 1.0
23.00000000 3.00000000 1.0
24.00000000 3.00000000 1.0
25.00000000 3.00000000 1.0
26.00000000 3.00000000 1.0
27.00000000 3.00000000 1.0
28.00000000 3.00000000 1.0
29.00000000 3.00000000 1.0
30.00000000 3.00000000 1.0
31.00000000 3.00000000 1.0
32.00000000 3.00000000 1.0
33.00000000 3.00000000 1.0
34.00000000 3.00000000 1.0
35.00000000 3.00000000 1.0
36.00000000 3.00000000 1.0
37.00000000 3.00000000 1.0
38.00000000 3.00000000 1.0
39.00000000 3.00000000 1.0
0.00000000 4.00000000 1.0
1.00000000 4.00000000 1.0
2.00000000 4.00000000 1.0
3.00000000 4.00000000 1.0
4.00000000 4.00000000 1.0
5.00000000 4.00000000 1.0
6.00000000 4.00000000 1.0
7.00000000 4.00000000 1.0
8.00000000 4.00000000 1.0
9.00000000 4.00000000 1.0
10.00000000 4.00000000 1.0
11.00000000 4.00000000 1.0
12.00000000 4.00000000 1.0
13.00000000 4.00000000 1.0
14.00000000 4.00000000 1.0
15.00000000 4.00000000 1.0
16.00000000 4.00000000 1.0
17.00000000 4.00000000 1.0
18.00000000 4.00000000 1.0
19.00000000 4.00000000 1.0
20.00000000 4.00000000 1.0
21.00000000 4.00000000 1.0
22.00000000 4.00000000 1.0
23.00000000 4.00000000 1.0
24.00000000 4.00000000 1.0
25.00000000 4.00000000 1.0
26.00000000 4.00000000 1.0
27.00000000 4.00000000 1.0
28.00000000 4.00000000 1.0
29.00000000 4.00000000 1.0
30.00000000 4.00000000 1.0
31.00000000 4.00000000 1.0
32.00000000 4.00000000 1.0
33.00000000 4.00000000 1.0
34.00000000 4.00000000 1.0
35.00000000 4.00000000 1.0
36.00000000 4.00000000 1.0
37.00000000 4.00000000 1.0
38.00000000 4.00000000 1.0
39.00000000 4.00000000 1.0
0.00000000 5.00000000 1.0
1.00000000 5.00000000 1.0
2.00000000 5.00000000 1.0
3.00000000 5.00000000 1.0
4.00000000 5.00000000 1.0
5.00000000 5.00000000 1.0
6.00000000 5.00000000 1.0
7.00000000 5.00000000 1.0
8.00000000 5.00000000 1.0
9.00000000 5.00000000 1.0
10.00000000 5.00000000 1.0
11.00000000 5.00000000 1.0
12.00000000 5.00000000 1.0
13.00000000 5.00000000 1.0
14.00000000 5.00000000 1.0
15.00000000 5.00000000 1.0
16.00000000 5.00000000 1.0
17.00000000 5.00000000 1.0
18.00000000 5.00000000 1.0
19.00000000 5.00000000 1.0
20.00000000 5.00000000 1.0
21.00000000 5.00000000 1.0
22.00000000 5.00000000 1.0
23.00000000 5.00000000 1.0
24.00000000 5.00000000 1.0
25.00000000 5.00000000 1.0
26.00000000 5.00000000 1.0
27.00000000 5.00000000 1.0
28.00000000 5.00000000 1.0
29.00000000 5.00000000 1.0
30.00000000 5.00000000 1.0
31.00000000 5.00000000 1.0
32.00000000 5.00000000 1.0
33.00000000 5.00000000 1.0
34.00000000 5.00000000 1.0
35.00000000 5.00000000 1.0
36.00000000 5.00000000 1.0
37.00000000 5.00000000 1.0
38.00000000 5.00000000 1.0
39.00000000 5.00000000 1.0
0.00000000 6.00000000 1.0
1.00000000 6.00000000 1.0
2.00000000 6.00000000 1.0
3.00000000 6.00000000 1.0
4.00000000 6.00000000 1.0
5.00000000 6.00000000 1.0
6.00000000 6.00000000 1.0
7.00000000 6.00000000 1.0
8.00000000 6.00000000 1.0
9.00000000 6.00000000 1.0
10.00000000 6.00000000 1.0
11.00000000 6.00000000 1.0
12.00000000 6.00000000 1.0
13.00000000 6.00000000 1.0
14.00000000 6.00000000 1.0
15.00000000 6.00000000 1.0
16.00000000 6.00000000 1.0
17.00000000 6.00000000 1.0
18.00000000 6.00000000 1.0
19.00000000 6.00000000 1.0
20.00000000 6.00000000 1.0
21.00000000 6.00000000 1.0
22.00000000 6.00000000 1.0
23.00000000 6.00000000 1.0
24.00000000 6.00000000 1.0
25.00000000 6.00000000 1.0
26.00000000 6.00000000 1.0
27.00000000 6.00000000 1.0
28.00000000 6.00000000 1.0
29.00000000 6.00000000 1.0
30.00000000 6.00000000 1.0
31.00000000 6.00000000 1.0
32.00000000 6.00000000 1.0
33.00000000 6.00000000 1.0
34.00000000 6.00000000 1.0
35.00000000 6.00000000 1.0
36.00000000 6.00000000 1.0
37.00000000 6.00000000 1.0
38.00000000 6.00000000 1.0
39.00000000 6.00000000 1.0
0.00000000 7.00000000 1.0
1.00000000 7.00000000 1.0
2.00000000 7.00000000 1.0
3.00000000 7.00000000 1.0
4.00000000 7.00000000 1.0
5.00000000 7.00000000 1.0
6.00000000 7.00000000 1.0
7.00000000 7.00000000 1.0
8.00000000 7.00000000 1.0
9.00000000 7.00000000 1.0
10.00000000 7.00000000 1.0
11.00000000 7.00000000 1.0
12.00000000 7.00000000 1.0
13.00000000 7.00000000 1.0
14.00000000 7.00000000 1.0
15.00000000 7.00000000 1.0
16.00000000 7.00000000 1.0
17.00000000 7.00000000 1.0
18.00000000 7.00000000 1.0
19.00000000 7.00000000 1.0
20.00000000 7.00000000 1.0
21.00000000 7.00000000 1.0
22.00000000 7.00000000 1.0
23.00000000 7.00000000 1.0
24.00000000 7.00000000 1.0
25.00000000 7.00000000 1.0
26.00000000 7.00000000 1.0
27.00000000 7.00000000 1.0
28.00000000 7.00000000 1.0
29.00000000 7.00000000 1.0
30.00000000 7.00000000 1.0
31.00000000 7.00000000 1.0
32.00000000 7.00000000 1.0
33.00000000 7.00000000 1.0
34.00000000 7.00000000 1.0
35.00000000 7.00000000 1.0
36.00000000 7.00000000 1.0
37.00000000 7.00000000 1.0
38.00000000 7.00000000 1.0
39.00000000 7.00000000 1.0
0.00000000 8.00000000 1.0
1.00000000 8.00000000 1.0
2.00000000 8.00000000 1.0
3.00000000 8.00000000 1.0
4.00000000 8.00000000 1.0
5.00000000 8.00000000 1.0
6.00000000 8.00000000 1.0
7.00000000 8.00000000 1.0
8.00000000 8.00000000 1.0
9.00000000 8.00000000 1.0
10.00000000 8.00000000 1.0
11.00000000 8.00000000 1.0
12.00000000 8.00000000 1.0
13.00000000 8.00000000 1.0
14.00000000 8.00000000 1.0
15.00000000 8.00000000 1.0
16.00000000 8.00000000 1.0
17.00000000 8.00000000 1.0
18.00000000 8.00000000 1.0
19.00000000 8.00000000 1.0
20.00000000 8.00000000 1.0
21.00000000 8.00000000 1.0
22.00000000 8.00000000 1.0
23.00000000 8.00000000 1.0
24.00000000 8.00000000 1.0
25.00000000 8.00000000 1.0
26.00000000 8.00000000 1.0
27.00000000 8.00000000 1.0
28.00000000 8.00000000 1.0
29.00000000 8.00000000 1.0
30.00000000 8.00000000 1.0
31.00000000 8.00000000 1.0
32.00000000 8.00000000 1.0
33.00000000 8.00000000 1.0
34.00000000 8.00000000 1.0
35.00000000 8.00000000 1.0
36.00000000 8.00000000 1.0
37.00000000 8.00000000 1.0
38.00000000 8.00000000 1.0
39.00000000 8.00000000 1.0
0.00000000 9.00000000 1.0
1.00000000 9.00000000 1.0
2.00000000 9.00000000 1.0
3.00000000 9.00000000 1.0
4.00000000 9.00000000 1.0
5.00000000 9.00000000 1.0
6.00000000 9.00000000 1.0
7.00000000 9.00000000 1.0
8.00000000 9.00000000 1.0
[...]
POINT_DATA 1600
VECTORS velocity double
0.00000000 0.00002573 0.0
0.00000025 -0.00002585 0.0
0.00000046 -0.00000429 0.0
0.00000060 0.00005378 0.0
0.00000064 0.00012237 0.0
0.00000059 0.00018837 0.0
0.00000049 0.00024577 0.0
0.00000034 0.00029204 0.0
0.00000017 0.00032633 0.0
-0.00000003 0.00034859 0.0
-0.00000023 0.00035927 0.0
-0.00000043 0.00035905 0.0
-0.00000063 0.00034878 0.0
-0.00000081 0.00032943 0.0
-0.00000098 0.00030202 0.0
-0.00000113 0.00026760 0.0
-0.00000125 0.00022725 0.0
-0.00000135 0.00018205 0.0
-0.00000142 0.00013307 0.0
-0.00000147 0.00008138 0.0
-0.00000148 0.00002806 0.0
-0.00000147 -0.00002583 0.0
-0.00000142 -0.00007923 0.0
-0.00000135 -0.00013106 0.0
-0.00000125 -0.00018024 0.0
-0.00000113 -0.00022567 0.0
-0.00000098 -0.00026627 0.0
-0.00000081 -0.00030091 0.0
-0.00000063 -0.00032850 0.0
-0.00000043 -0.00034797 0.0
-0.00000023 -0.00035826 0.0
-0.00000002 -0.00035843 0.0
0.00000017 -0.00034761 0.0
0.00000035 -0.00032512 0.0
0.00000049 -0.00029057 0.0
0.00000060 -0.00024401 0.0
0.00000064 -0.00018634 0.0
0.00000060 -0.00012014 0.0
0.00000046 -0.00005145 0.0
0.00000025 0.00000652 0.0
0.00000000 0.00007857 0.0
0.00009672 -0.00007911 0.0
0.00006426 0.00004324 0.0
-0.00016107 0.00029511 0.0
-0.00060785 0.00058635 0.0
-0.00126950 0.00086849 0.0
-0.00212078 0.00111669 0.0
-0.00312703 0.00131893 0.0
-0.00424948 0.00147011 0.0
-0.00544828 0.00156904 0.0
-0.00668429 0.00161689 0.0
-0.00792032 0.00161622 0.0
-0.00912178 0.00157053 0.0
-0.01025723 0.00148391 0.0
-0.01129862 0.00136083 0.0
-0.01222153 0.00120597 0.0
-0.01300522 0.00102415 0.0
-0.01363271 0.00082024 0.0
-0.01409076 0.00059913 0.0
-0.01436991 0.00036570 0.0
-0.01446441 0.00012480 0.0
-0.01437227 -0.00011869 0.0
-0.01409525 -0.00035991 0.0
-0.01363885 -0.00059396 0.0
-0.01301239 -0.00081591 0.0
-0.01222897 -0.00102080 0.0
-0.01130557 -0.00120364 0.0
-0.01026296 -0.00135944 0.0
-0.00912573 -0.00148329 0.0
-0.00792210 -0.00157040 0.0
-0.00668380 -0.00161623 0.0
-0.00544569 -0.00161667 0.0
-0.00424524 -0.00156823 0.0
-0.00312182 -0.00146839 0.0
-0.00211543 -0.00131610 0.0
-0.00126490 -0.00111269 0.0
-0.00060479 -0.00086342 0.0
-0.00016008 -0.00058054 0.0
0.00006305 -0.00028907 0.0
0.00009384 -0.00003784 0.0
0.00000000 0.00007672 0.0
0.00002644 -0.00007773 0.0
-0.00020693 0.00027661 0.0
-0.00077758 0.00086575 0.0
-0.00171930 0.00152807 0.0
-0.00302063 0.00216982 0.0
-0.00464192 0.00273799 0.0
-0.00652703 0.00320404 0.0
-0.00861108 0.00355416 0.0
-0.01082575 0.00378371 0.0
-0.01310275 0.00389389 0.0
-0.01537619 0.00388966 0.0
-0.01758422 0.00377856 0.0
-0.01967007 0.00356977 0.0
-0.02158285 0.00327361 0.0
-0.02327797 0.00290109 0.0
-0.02471745 0.00246363 0.0
-0.02587007 0.00197287 0.0
-0.02671148 0.00144054 0.0
-0.02722420 0.00087842 0.0
-0.02739766 0.00029826 0.0
-0.02722820 -0.00028816 0.0
-0.02671906 -0.00086904 0.0
-0.02588047 -0.00143255 0.0
-0.02472961 -0.00196677 0.0
-0.02329066 -0.00245975 0.0
-0.02159478 -0.00289952 0.0
-0.01968004 -0.00327418 0.0
-0.01759126 -0.00357207 0.0
-0.01537968 -0.00378198 0.0
-0.01310248 -0.00389344 0.0
-0.01082198 -0.00389717 0.0
-0.00860451 -0.00378570 0.0
-0.00651874 -0.00355415 0.0
-0.00463325 -0.00320160 0.0
-0.00301294 -0.00273300 0.0
-0.00171381 -0.00216256 0.0
-0.00077505 -0.00151929 0.0
-0.00020744 -0.00085669 0.0
0.00002381 -0.00026909 0.0
0.00000000 -0.00004854 0.0
-0.00009921 0.00004728 0.0
-0.00061658 0.00079397 0.0
-0.00160177 0.00185094 0.0
-0.00307430 0.00300060 0.0
-0.00501129 0.00410680 0.0
-0.00735985 0.00508656 0.0
-0.01004747 0.00589165 0.0
-0.01299007 0.00649675 0.0
-0.01609814 0.00689178 0.0
-0.01928125 0.00707700 0.0
-0.02245135 0.00705976 0.0
-0.02552511 0.00685231 0.0
-0.02842560 0.00647026 0.0
-0.03108348 0.00593149 0.0
-0.03343776 0.00525537 0.0
-0.03543635 0.00446221 0.0
-0.03703630 0.00357282 0.0
-0.03820408 0.00260831 0.0
-0.03891557 0.00158991 0.0
-0.03915620 0.00053889 0.0
-0.03892091 -0.00052344 0.0
-0.03821423 -0.00157572 0.0
-0.03705028 -0.00259650 0.0
-0.03545277 -0.00356428 0.0
-0.03345504 -0.00445749 0.0
-0.03109992 -0.00525463 0.0
-0.02843965 -0.00593446 0.0
-0.02553547 -0.00647625 0.0
-0.02245717 -0.00686028 0.0
-0.01928219 -0.00706841 0.0
-0.01609446 -0.00708490 0.0
-0.01298261 -0.00689755 0.0
-0.01003754 -0.00649923 0.0
-0.00734907 -0.00589006 0.0
-0.00500137 -0.00508070 0.0
-0.00306676 -0.00409717 0.0
-0.00159759 -0.00298846 0.0
-0.00061593 -0.00183836 0.0
-0.00010125 -0.00078376 0.0
0.00000000 -0.00030806 0.0
-0.00023617 0.00030673 0.0
-0.00106804 0.00162584 0.0
-0.00249989 0.00328279 0.0
-0.00452328 0.00502399 0.0
-0.00709620 0.00667972 0.0
-0.01014971 0.00814006 0.0
-0.01359552 0.00933746 0.0
-0.01733309 0.01023432 0.0
-0.02125565 0.01081435 0.0
-0.02525507 0.01107642 0.0
-0.02922560 0.01103029 0.0
-0.03306676 0.01069347 0.0
-0.03668544 0.01008895 0.0
-0.03999746 0.00924351 0.0
-0.04292858 0.00818650 0.0
-0.04541525 0.00694887 0.0
-0.04740502 0.00556259 0.0
-0.04885686 0.00406015 0.0
-0.04974127 0.00247432 0.0
-0.05004040 0.00083802 0.0
-0.04974807 -0.00081577 0.0
-0.04886983 -0.00245397 0.0
-0.04742296 -0.00404338 0.0
-0.04543650 -0.00555074 0.0
-0.04295120 -0.00694279 0.0
-0.04001940 -0.00818643 0.0
-0.03670477 -0.00924909 0.0
-0.03308184 -0.01009918 0.0
-0.02923530 -0.01070682 0.0
-0.02525887 -0.01104484 0.0
-0.02125373 -0.01109005 0.0
-0.01732629 -0.01082499 0.0
-0.01358528 -0.01024023 0.0
-0.01013789 -0.00933745 0.0
-0.00708479 -0.00813380 0.0
-0.00451410 -0.00666786 0.0
-0.00249422 -0.00500833 0.0
-0.00106632 -0.00326626 0.0
-0.00023773 -0.00161235 0.0
0.00000000 -0.00069773 0.0
-0.00036911 0.00069644 0.0
-0.00151939 0.00277612 0.0
-0.00340712 0.00517052 0.0
-0.00598905 0.00760592 0.0
-0.00919799 0.00988867 0.0
-0.01294514 0.01188721 0.0
-0.01712489 0.01351721 0.0
-0.02162053 0.01472996 0.0
-0.02630958 0.01550340 0.0
-0.03106852 0.01583537 0.0
-0.03577673 0.01573850 0.0
-0.04031952 0.01523626 0.0
-0.04459054 0.01435997 0.0
-0.04849353 0.01314650 0.0
-0.05194354 0.01163650 0.0
-0.05486777 0.00987310 0.0
-0.05720614 0.00790096 0.0
-0.05891160 0.00576562 0.0
-0.05995033 0.00351306 0.0
-0.06030184 0.00118953 0.0
-0.05995905 -0.00115857 0.0
-0.05892829 -0.00348473 0.0
-0.05722937 -0.00574229 0.0
-0.05489558 -0.00788454 0.0
-0.05197358 -0.00986478 0.0
-0.04852333 -0.01163669 0.0
-0.04461770 -0.01315472 0.0
-0.04034199 -0.01437489 0.0
-0.03579299 -0.01525582 0.0
-0.03107776 -0.01576007 0.0
-0.02631177 -0.01585604 0.0
-0.02161647 -0.01552030 0.0
-0.01711608 -0.01474062 0.0
-0.01293360 -0.01351993 0.0
-0.00918601 -0.01188138 0.0
-0.00597881 -0.00987507 0.0
-0.00340031 -0.00758683 0.0
-0.00151680 -0.00514977 0.0
-0.00037029 -0.00275885 0.0
0.00000000 -0.00120979 0.0
-0.00049417 0.00120863 0.0
-0.00195618 0.00423813 0.0
-0.00429794 0.00751228 0.0
-0.00743928 0.01074726 0.0
-0.01128415 0.01373354 0.0
-0.01572048 0.01632354 0.0
-0.02062312 0.01841986 0.0
-0.02585815 0.01996499 0.0
-0.03128743 0.02093268 0.0
-0.03677300 0.02132094 0.0
-0.04218083 0.02114632 0.0
-0.04738388 0.02043931 0.0
-0.05226460 0.01924069 0.0
-0.05671669 0.01759859 0.0
-0.06064645 0.01556627 0.0
-0.06397366 0.01320031 0.0
-0.06663213 0.01055943 0.0
-0.06857005 0.00770354 0.0
-0.06975019 0.00469320 0.0
-0.07014999 0.00158933 0.0
-0.06976161 -0.00154695 0.0
-0.06859199 -0.00465434 0.0
-0.06666289 -0.00767139 0.0
-0.06401087 -0.01053656 0.0
-0.06068726 -0.01318839 0.0
-0.05675806 -0.01556589 0.0
-0.05230355 -0.01760923 0.0
-0.04741777 -0.01926067 0.0
-0.04220760 -0.02046598 0.0
-0.03679140 -0.02117627 0.0
-0.03129711 -0.02135033 0.0
-0.02585973 -0.02095768 0.0
-0.02061810 -0.01998225 0.0
-0.01571104 -0.01842699 0.0
-0.01127290 -0.01631952 0.0
-0.00742884 -0.01371913 0.0
-0.00429050 -0.01072518 0.0
-0.00195299 -0.00748728 0.0
-0.00049509 -0.00421675 0.0
0.00000000 -0.00183724 0.0
-0.00061195 0.00183628 0.0
-0.00237714 0.00600333 0.0
-0.00516808 0.01030322 0.0
-0.00886806 0.01444724 0.0
-0.01335023 0.01821571 0.0
-0.01847674 0.02145004 0.0
-0.02410061 0.02404373 0.0
-0.03006913 0.02593351 0.0
-0.03622778 0.02709133 0.0
-0.04242413 0.02751730 0.0
-0.04851134 0.02723353 0.0
-0.05435108 0.02627905 0.0
-0.05981590 0.02470551 0.0
-0.06479099 0.02257368 0.0
-0.06917540 0.01995068 0.0
-0.07288292 0.01690783 0.0
-0.07584253 0.01351905 0.0
-0.07799874 0.00985975 0.0
-0.07931169 0.00600614 0.0
-0.07975721 0.00203485 0.0
-0.07932688 -0.00197728 0.0
-0.07802805 -0.00595317 0.0
-0.07588389 -0.00981556 0.0
-0.07293342 -0.01348703 0.0
-0.06923157 -0.01689024 0.0
-0.06484903 -0.01994843 0.0
-0.05987203 -0.02258622 0.0
-0.05440187 -0.02473083 0.0
-0.04855400 -0.02631386 0.0
-0.04245675 -0.02727351 0.0
-0.03624952 -0.02755756 0.0
-0.03008031 -0.02712690 0.0
-0.02410263 -0.02595993 0.0
-0.01847194 -0.02405768 0.0
-0.01334156 -0.02144991 0.0
-0.00885864 -0.01820204 0.0
-0.00516071 -0.01442311 0.0
-0.00237368 -0.01027431 0.0
-0.00061269 -0.00597774 0.0
0.00000000 -0.00257533 0.0
-0.00072456 0.00257462 0.0
-0.00278686 0.00806563 0.0
-0.00602405 0.01354041 0.0
-0.01028405 0.01870723 0.0
-0.01540826 0.02333992 0.0
-0.02123115 0.02727294 0.0
-0.02758190 0.03039447 0.0
-0.03428731 0.03263892 0.0
-0.04117535 0.03397937 0.0
-0.04807857 0.03442052 0.0
-0.05483738 0.03399233 0.0
-0.06130266 0.03274433 0.0
-0.06733795 0.03074080 0.0
-0.07282099 0.02805672 0.0
-0.07764479 0.02477448 0.0
-0.08171833 0.02098136 0.0
-0.08496687 0.01676758 0.0
-0.08733214 0.01222502 0.0
-0.08877235 0.00744635 0.0
-0.08926216 0.00252466 0.0
-0.08879268 -0.00244676 0.0
-0.08737149 -0.00737436 0.0
-0.08502270 -0.01216435 0.0
-0.08178708 -0.01672265 0.0
-0.07772213 -0.02095519 0.0
-0.07290215 -0.02476841 0.0
-0.06741813 -0.02807025 0.0
-0.06137735 -0.03077161 0.0
-0.05490279 -0.03278842 0.0
-0.04813191 -0.03404439 0.0
-0.04121507 -0.03447439 0.0
-0.03431327 -0.03402870 0.0
-0.02759528 -0.03267791 0.0
-0.02123439 -0.03041858 0.0
-0.01540465 -0.02727964 0.0
-0.01027732 -0.02332937 0.0
-0.00601774 -0.01868269 0.0
-0.00278359 -0.01350846 0.0
-0.00072525 -0.00803607 0.0
0.00000000 -0.00342195 0.0
-0.00083455 0.00342154 0.0
-0.00319226 0.01042334 0.0
-0.00687734 0.01722549 0.0
-0.01170321 0.02353310 0.0
-0.01747891 0.02911562 0.0
-0.02400969 0.03380371 0.0
-0.03109904 0.03748382 0.0
-0.03855164 0.04009152 0.0
-0.04617663 0.04160436 0.0
-0.05379083 0.04203472 0.0
-0.06122162 0.04142312 0.0
-0.06830934 0.03983205 0.0
-0.07490910 0.03734056 0.0
-0.08089206 0.03403968 0.0
-0.08614620 0.03002863 0.0
-0.09057674 0.02541190 0.0
-0.09410620 0.02029705 0.0
-0.09667441 0.01479322 0.0
-0.09823827 0.00901021 0.0
-0.09877168 0.00305807 0.0
-0.09826538 -0.00295305 0.0
-0.09672701 -0.00891273 0.0
-0.09418118 -0.01471018 0.0
-0.09066969 -0.02023415 0.0
-0.08625173 -0.02537314 0.0
-0.08100418 -0.03001596 0.0
-0.07502166 -0.03405277 0.0
-0.06841648 -0.03737679 0.0
-0.06131823 -0.03988667 0.0
-0.05387295 -0.04148967 0.0
-0.04624175 -0.04210559 0.0
-0.03859890 -0.04167155 0.0
-0.03112929 -0.04014752 0.0
-0.02402535 -0.03752252 0.0
-0.01748364 -0.03382135 0.0
-0.01170139 -0.02911162 0.0
-0.00687339 -0.02351069 0.0
-0.00318978 -0.01719207 0.0
-0.00083536 -0.01039049 0.0
0.00000000 -0.00437759 0.0
-0.00094444 0.00437752 0.0
-0.00360087 0.01307976 0.0
-0.00774120 0.02136582 0.0
-0.01314451 0.02893641 0.0
-0.01958659 0.03555770 0.0
-0.02684197 0.04105909 0.0
-0.03468674 0.04532859 0.0
-0.04290182 0.04830661 0.0
-0.05127627 0.04997880 0.0
-0.05961032 0.05036877 0.0
-0.06771804 0.04953085 0.0
-0.07542936 0.04754337 0.0
-0.08259149 0.04450269 0.0
-0.08906980 0.04051798 0.0
-0.09474820 0.03570703 0.0
-0.09952917 0.03019287 0.0
-0.10333351 0.02410139 0.0
-0.10609994 0.01755965 0.0
-0.10778475 0.01069502 0.0
-0.10836144 0.00363475 0.0
-0.10782052 -0.00349397 0.0
-0.10616951 -0.01056375 0.0
-0.10343304 -0.01744665 0.0
-0.09965323 -0.02401396 0.0
-0.09489009 -0.03013628 0.0
-0.08922202 -0.03568403 0.0
-0.08274625 -0.04052854 0.0
-0.07557909 -0.04454395 0.0
-0.06785595 -0.04760981 0.0
-0.05973090 -0.04961472 0.0
-0.05137573 -0.05046076 0.0
-0.04297836 -0.05006892 0.0
-0.03474063 -0.04838525 0.0
-0.02687551 -0.04538764 0.0
-0.01960377 -0.04109309 0.0
-0.01315043 -0.03556496 0.0
-0.00774130 -0.02891981 0.0
-0.00359997 -0.02133340 0.0
-0.00094558 -0.01304488 0.0
0.00000000 -0.00544514 0.0
-0.00105654 0.00544545 0.0
-0.00402001 0.01604323 0.0
-0.00862900 0.02597481 0.0
-0.01462737 0.03493478 0.0
-0.02175626 0.04268659 0.0
-0.02975777 0.04906060 0.0
-0.03837882 0.05394964 0.0
-0.04737496 0.05730275 0.0
-0.05651393 0.05911777 0.0
-0.06557867 0.05943351 0.0
-0.07436966 0.05832184 0.0
-0.08270663 0.05588034 0.0
-0.09042950 0.05222556 0.0
-0.09739875 0.04748723 0.0
-0.10349529 0.04180357 0.0
-0.10861999 0.03531757 0.0
-0.11269294 0.02817434 0.0
-0.11565273 0.02051944 0.0
-0.11745571 0.01249800 0.0
-0.11807541 0.00425446 0.0
-0.11750224 -0.00406714 0.0
-0.11574339 -0.01232259 0.0
-0.11282306 -0.02036698 0.0
-0.10878291 -0.02805410 0.0
-0.10368278 -0.03523641 0.0
-0.09760148 -0.04176533 0.0
-0.09063766 -0.04749236 0.0
-0.08291057 -0.05227104 0.0
-0.07456052 -0.05595986 0.0
-0.06574901 -0.05842622 0.0
-0.05665830 -0.05955147 0.0
-0.04749025 -0.05923698 0.0
-0.03846448 -0.05741101 0.0
-0.02981581 -0.05403631 0.0
-0.02179091 -0.04911800 0.0
-0.01464450 -0.04271136 0.0
-0.00863527 -0.03492905 0.0
-0.00402171 -0.02594696 0.0
-0.00105828 -0.01600831 0.0
0.00000000 -0.00662963 0.0
-0.00117291 0.00663037 0.0
-0.00445651 0.01932683 0.0
-0.00955339 0.03107170 0.0
-0.01617028 0.04155166 0.0
-0.02401156 0.05052788 0.0
-0.03278479 0.05783383 0.0
-0.04220574 0.06337059 0.0
-0.05200300 0.06710000 0.0
-0.06192183 0.06903660 0.0
-0.07172725 0.06923893 0.0
-0.08120614 0.06780073 0.0
-0.09016845 0.06484265 0.0
-0.09844765 0.06050476 0.0
-0.10590048 0.05494006 0.0
-0.11240612 0.04830922 0.0
-0.11786515 0.04077659 0.0
-0.12219821 0.03250740 0.0
-0.12534480 0.02366603 0.0
-0.12726213 0.01441533 0.0
-0.12792429 0.00491661 0.0
-0.12732170 -0.00466972 0.0
-0.12546105 -0.01418325 0.0
-0.12236550 -0.02346252 0.0
-0.11807543 -0.03234418 0.0
-0.11264934 -0.04066250 0.0
-0.10616519 -0.04824949 0.0
-0.09872167 -0.05493588 0.0
-0.09043962 -0.06055310 0.0
-0.08146311 -0.06493637 0.0
-0.07196022 -0.06792911 0.0
-0.06212322 -0.06938847 0.0
-0.05216802 -0.06919218 0.0
-0.04233270 -0.06724633 0.0
-0.03287515 -0.06349386 0.0
-0.02406968 -0.05792346 0.0
-0.01620282 -0.05057822 0.0
-0.00956838 -0.04156348 0.0
-0.00446203 -0.03105332 0.0
-0.00117561 -0.01929472 0.0
0.00000000 -0.00793803 0.0
-0.00129540 0.00793925 0.0
-0.00491652 0.02294794 0.0
-0.01052592 0.03668109 0.0
-0.01779006 0.04881580 0.0
-0.02637370 0.05911152 0.0
-0.03594718 0.06740731 0.0
-0.04619288 0.07361629 0.0
-0.05681073 0.07771785 0.0
-0.06752250 0.07974837 0.0
-0.07807490 0.07979134 0.0
-0.08824145 0.07796727 0.0
-0.09782313 0.07442434 0.0
-0.10664821 0.06932984 0.0
-0.11457114 0.06286299 0.0
-0.12147104 0.05520912 0.0
-0.12724981 0.04655536 0.0
-0.13183016 0.03708775 0.0
-0.13515376 0.02698964 0.0
-0.13717966 0.01644123 0.0
-0.13788308 0.00562002 0.0
-0.13725465 -0.00529815 0.0
-0.13530029 -0.01613760 0.0
-0.13204153 -0.02672128 0.0
-0.12751638 -0.03686933 0.0
-0.12178074 -0.04639814 0.0
-0.11491009 -0.05512013 0.0
-0.10700151 -0.06284446 0.0
-0.09817572 -0.06937889 0.0
-0.08857899 -0.07453310 0.0
-0.07838474 -0.07812336 0.0
-0.06779447 -0.07997874 0.0
-0.05703789 -0.07994876 0.0
-0.04637199 -0.07791223 0.0
-0.03607885 -0.07378699 0.0
-0.02646227 -0.06754005 0.0
-0.01784296 -0.05919753 0.0
-0.01055267 -0.04885377 0.0
-0.00492734 -0.03667864 0.0
-0.00129947 -0.02292260 0.0
0.00000000 -0.00937905 0.0
-0.00142564 0.00938080 0.0
-0.00540561 0.02692791 0.0
-0.01155692 0.04283240 0.0
-0.01950158 0.05676046 0.0
-0.02886084 0.06847079 0.0
-0.03926457 0.07781103 0.0
-0.05035918 0.08471089 0.0
-0.06181415 0.08917282 0.0
-0.07332688 0.09126110 0.0
-0.08462569 0.09109015 0.0
-0.09547141 0.08881298 0.0
-0.10565736 0.08461029 0.0
-0.11500832 0.07868080 0.0
-0.12337850 0.07123316 0.0
-0.13064902 0.06247965 0.0
-0.13672517 0.05263151 0.0
-0.14153358 0.04189615 0.0
-0.14501963 0.03047569 0.0
-0.14714537 0.01856697 0.0
-0.14788784 0.00636249 0.0
-0.14723814 -0.00594784 0.0
-0.14520116 -0.01817459 0.0
-0.14179599 -0.03012645 0.0
-0.13705713 -0.04160819 0.0
-0.13103622 -0.05241905 0.0
-0.12380438 -0.06235197 0.0
-0.11545494 -0.07119390 0.0
-0.10610633 -0.07872750 0.0
-0.09590496 -0.08473447 0.0
-0.08502780 -0.08900052 0.0
-0.07368426 -0.09132228 0.0
-0.06211718 -0.09151583 0.0
-0.05060257 -0.08942684 0.0
-0.03944775 -0.08494182 0.0
-0.02898784 -0.07799995 0.0
-0.01958052 -0.06860485 0.0
-0.01159898 -0.05683531 0.0
-0.00542347 -0.04285416 0.0
-0.00143157 -0.02691450 0.0
0.00000000 -0.01096297 0.0
-0.00156511 0.01096534 0.0
-0.00592881 0.03129160 0.0
-0.01265565 0.04955925 0.0
-0.02131769 0.06542250 0.0
-0.03148787 0.07864097 0.0
-0.04275155 0.08907471 0.0
-0.05471622 0.09667557 0.0
-0.06701912 0.10147572 0.0
-0.07933251 0.10357448 0.0
-0.09136671 0.10312435 0.0
-0.10287109 0.10031736 0.0
-0.11363325 0.09537246 0.0
-0.12347686 0.08852441 0.0
-0.13225853 0.08001484 0.0
-0.13986411 0.07008523 0.0
-0.14620481 0.05897221 0.0
-0.15121342 0.04690476 0.0
-0.15484096 0.03410323 0.0
-0.15705383 0.02077984 0.0
-0.15783179 0.00714045 0.0
-0.15716665 -0.00661298 0.0
-0.15506197 -0.02027927 0.0
-0.15153355 -0.03365486 0.0
-0.14661092 -0.04653082 0.0
-0.14033956 -0.05869042 0.0
-0.13278388 -0.06990765 0.0
-0.12403083 -0.07994695 0.0
-0.11419379 -0.08856454 0.0
-0.10341657 -0.09551168 0.0
-0.09187720 -0.10053989 0.0
-0.07979102 -0.10340846 0.0
-0.06741277 -0.10389408 0.0
-0.05503714 -0.10180247 0.0
-0.04299746 -0.09698150 0.0
-0.03166219 -0.08933522 0.0
-0.02142911 -0.07883794 0.0
-0.01271707 -0.06554735 0.0
-0.00595572 -0.04961550 0.0
-0.00157348 -0.03129674 0.0
0.00000000 -0.01270164 0.0
-0.00171520 0.01270469 0.0
-0.00649082 0.03606723 0.0
-0.01383046 0.05689889 0.0
-0.02324941 0.07484145 0.0
-0.03426632 0.08965787 0.0
-0.04641726 0.10122565 0.0
-0.05926746 0.10952576 0.0
-0.07242002 0.11462828 0.0
-0.08552170 0.11667616 0.0
-0.09826572 0.11586837 0.0
-0.11039196 0.11244361 0.0
-0.12168504 0.10666553 0.0
-0.13197076 0.09881013 0.0
-0.14111153 0.08915561 0.0
-0.14900132 0.07797501 0.0
-0.15556040 0.06553129 0.0
-0.16073050 0.05207486 0.0
-0.16447046 0.03784319 0.0
-0.16675275 0.02306213 0.0
-0.16756081 0.00794851 0.0
-0.16688755 -0.00728624 0.0
-0.16473485 -0.02243198 0.0
-0.16111421 -0.03727550 0.0
-0.15604851 -0.05159651 0.0
-0.14957479 -0.06516414 0.0
-0.14174798 -0.07773447 0.0
-0.13264539 -0.08904953 0.0
-0.12237187 -0.09883807 0.0
-0.11106509 -0.10681846 0.0
-0.09890081 -0.11270417 0.0
-0.08609748 -0.11621178 0.0
-0.07291970 -0.11707186 0.0
-0.05967994 -0.11504224 0.0
-0.04673800 -0.10992345 0.0
-0.03449767 -0.10157554 0.0
-0.02340040 -0.08993521 0.0
-0.01391575 -0.07503200 0.0
-0.00652904 -0.05700221 0.0
-0.00172666 -0.03609912 0.0
0.00000000 -0.01460840 0.0
-0.00187727 0.01461224 0.0
-0.00709619 0.04128615 0.0
-0.01508912 0.06489182 0.0
-0.02530619 0.08505852 0.0
-0.03720450 0.10155617 0.0
-0.05026520 0.11428636 0.0
-0.06400746 0.12326802 0.0
-0.07799848 0.12861930 0.0
-0.09185958 0.13053727 0.0
-0.10526856 0.12927735 0.0
-0.11795874 0.12513378 0.0
-0.12971547 0.11842227 0.0
-0.14037093 0.10946559 0.0
-0.14979771 0.09858239 0.0
-0.15790201 0.08607932 0.0
-0.16461700 0.07224628 0.0
-0.16989661 0.05735446 0.0
-0.17371014 0.04165673 0.0
-0.17603802 0.02539001 0.0
-0.17686859 0.00877908 0.0
-0.17619623 -0.00795860 0.0
-0.17402081 -0.02460741 0.0
-0.17034837 -0.04094793 0.0
-0.16519327 -0.05675161 0.0
-0.15858146 -0.07177595 0.0
-0.15055503 -0.08576090 0.0
-0.14117781 -0.09842674 0.0
-0.13054181 -0.10947407 0.0
-0.11877409 -0.11858619 0.0
-0.10604377 -0.12543449 0.0
-0.09256849 -0.12968706 0.0
-0.07861970 -0.13102065 0.0
-0.06452595 -0.12913599 0.0
-0.05067345 -0.12377594 0.0
-0.03750326 -0.11474573 0.0
-0.02550445 -0.10193402 0.0
-0.01520324 -0.08533321 0.0
-0.00714825 -0.06505720 0.0
-0.00189257 -0.04135480 0.0
0.00000000 -0.01669827 0.0
-0.00205280 0.01670301 0.0
-0.00774966 0.04698301 0.0
-0.01643927 0.07358143 0.0
-0.02749640 0.09611565 0.0
-0.04030779 0.11436756 0.0
-0.05429305 0.12827161 0.0