# vtk DataFile Version 4.0
2D velocity field
ASCII
DATASET STRUCTURED_GRID
DIMENSIONS 40 40 1
POINTS 1600 float
0.00000000 0.00000000 1.0
1.00000000 0.00000000 1.0
2.00000000 0.00000000 1.0
3.00000000 0.00000000 1.0
4.00000000 0.00000000 1.0
5.00000000 0.00000000 1.0
6.00000000 0.00000000 1.0
7.00000000 0.00000000 1.0
8.00000000 0.00000000 1.0
9.00000000 0.00000000 1.0
10.00000000 0.00000000 1.0
11.00000000 0.00000000 1.0
12.00000000 0.00000000 1.0
13.00000000 0.00000000 1.0
14.00000000 0.00000000 1.0
15.00000000 0.00000000 1.0
16.00000000 0.00000000 1.0
17.00000000 0.00000000 1.0
18.00000000 0.00000000 1.0
19.00000000 0.00000000 1.0
20.00000000 0.00000000 1.0
21.00000000 0.00000000 1.0
22.00000000 0.00000000 1.0
23.00000000 0.00000000 1.0
24.00000000 0.00000000 1.0
25.00000000 0.00000000 1.0
26.00000000 0.00000000 1.0
27.00000000 0.00000000 1.0
28.00000000 0.00000000 1.0
29.00000000 0.00000000 1.0
30.00000000 0.00000000 1.0
31.00000000 0.00000000 1.0
32.00000000 0.00000000 1.0
33.00000000 0.00000000 1.0
34.00000000 0.00000000 1.0
35.00000000 0.00000000 1.0
36.00000000 0.00000000 1.0
37.00000000 0.00000000 1.0
38.00000000 0.00000000 1.0
39.00000000 0.00000000 1.0
0.00000000 1.00000000 1.0
1.00000000 1.00000000 1.0
2.00000000 1.00000000 1.0
3.00000000 1.00000000 1.0
4.00000000 1.00000000 1.0
5.00000000 1.00000000 1.0
6.00000000 1.00000000 1.0
7.00000000 1.00000000 1.0
8.00000000 1.00000000 1.0
9.00000000 1.00000000 1.0
10.00000000 1.00000000 1.0
11.00000000 1.00000000 1.0
12.00000000 1.00000000 1.0
13.00000000 1.00000000 1.0
14.00000000 1.00000000 1.0
15.00000000 1.00000000 1.0
16.00000000 1.00000000 1.0
17.00000000 1.00000000 1.0
18.00000000 1.00000000 1.0
19.00000000 1.00000000 1.0
20.00000000 1.00000000 1.0
21.00000000 1.00000000 1.0
22.00000000 1.00000000 1.0
23.00000000 1.00000000 1.0
24.00000000 1.00000000 1.0
25.00000000 1.00000000 1.0
26.00000000 1.00000000 1.0
27.00000000 1.00000000 1.0
28.00000000 1.00000000 1.0
29.00000000 1.00000000 1.0
30.00000000 1.00000000 1.0
31.00000000 1.00000000 1.0
32.00000000 1.00000000 1.0
33.00000000 1.00000000 1.0
34.00000000 1.00000000 1.0
35.00000000 1.00000000 1.0
36.00000000 1.00000000 1.0
37.00000000 1.00000000 1.0
38.00000000 1.00000000 1.0
39.00000000 1.00000000 1.0
0.00000000 2.00000000 1.0
1.00000000 2.00000000 1.0
2.00000000 2.00000000 1.0
3.00000000 2.00000000 1.0
4.00000000 2.00000000 1.0
5.00000000 2.00000000 1.0
6.00000000 2.00000000 1.0
7.00000000 2.00000000 1.0
8.00000000 2.00000000 1.0
9.00000000 2.00000000 1.0
10.00000000 2.00000000 1.0
11.00000000 2.00000000 1.0
12.00000000 2.00000000 1.0
13.00000000 2.00000000 1.0
14.00000000 2.00000000 1.0
15.00000000 2.00000000 1.0
16.00000000 2.00000000 1.0
17.00000000 2.00000000 1.0
18.00000000 2.00000000 1.0
19.00000000 2.00000000 1.0
20.00000000 2.00000000 1.0
21.00000000 2.00000000 1.0
22.00000000 2.00000000 1.0
23.00000000 2.00000000 1.0
24.00000000 2.00000000 1.0
25.00000000 2.00000000 1.0
26.00000000 2.00000000 1.0
27.00000000 2.00000000 1.0
28.00000000 2.00000000 1.0
29.00000000 2.00000000 1.0
30.00000000 2.00000000 1.0
31.00000000 2.00000000 1.0
32.00000000 2.00000000 1.0
33.00000000 2.00000000 1.0
34.00000000 2.00000000 1.0
35.00000000 2.00000000 1.0
36.00000000 2.00000000 1.0
37.00000000 2.00000000 1.0
38.00000000 2.00000000 1.0
39.00000000 2.00000000 1.0
0.00000000 3.00000000 1.0
1.00000000 3.00000000 1.0
2.00000000 3.00000000 1.0
3.00000000 3.00000000 1.0
4.00000000 3.00000000 1.0
5.00000000 3.00000000 1.0
6.00000000 3.00000000 1.0
7.00000000 3.00000000 1.0
8.00000000 3.00000000 1.0
9.00000000 3.00000000 1.0
10.00000000 3.00000000 1.0
11.00000000 3.00000000 1.0
12.00000000 3.00000000 1.0
13.00000000 3.00000000 1.0
14.00000000 3.00000000 1.0
15.00000000 3.00000000 1.0
16.00000000 3.00000000 1.0
17.00000000 3.00000000 1.0
18.00000000 3.00000000 1.0
19.00000000 3.00000000 1.0
20.00000000 3.00000000 1.0
21.00000000 3.00000000 1.0
22.00000000 3.00000000 1.0
23.00000000 3.00000000 1.0
24.00000000 3.00000000 1.0
25.00000000 3.00000000 1.0
26.00000000 3.00000000 1.0
27.00000000 3.00000000 1.0
28.00000000 3.00000000 1.0
29.00000000 3.00000000 1.0
30.00000000 3.00000000 1.0
31.00000000 3.00000000 1.0
32.00000000 3.00000000 1.0
33.00000000 3.00000000 1.0
34.00000000 3.00000000 1.0
35.00000000 3.00000000 1.0
36.00000000 3.00000000 1.0
37.00000000 3.00000000 1.0
38.00000000 3.00000000 1.0
39.00000000 3.00000000 1.0
0.00000000 4.00000000 1.0
1.00000000 4.00000000 1.0
2.00000000 4.00000000 1.0
3.00000000 4.00000000 1.0
4.00000000 4.00000000 1.0
5.00000000 4.00000000 1.0
6.00000000 4.00000000 1.0
7.00000000 4.00000000 1.0
8.00000000 4.00000000 1.0
9.00000000 4.00000000 1.0
10.00000000 4.00000000 1.0
11.00000000 4.00000000 1.0
12.00000000 4.00000000 1.0
13.00000000 4.00000000 1.0
14.00000000 4.00000000 1.0
15.00000000 4.00000000 1.0
16.00000000 4.00000000 1.0
17.00000000 4.00000000 1.0
18.00000000 4.00000000 1.0
19.00000000 4.00000000 1.0
20.00000000 4.00000000 1.0
21.00000000 4.00000000 1.0
22.00000000 4.00000000 1.0
23.00000000 4.00000000 1.0
24.00000000 4.00000000 1.0
25.00000000 4.00000000 1.0
26.00000000 4.00000000 1.0
27.00000000 4.00000000 1.0
28.00000000 4.00000000 1.0
29.00000000 4.00000000 1.0
30.00000000 4.00000000 1.0
31.00000000 4.00000000 1.0
32.00000000 4.00000000 1.0
33.00000000 4.00000000 1.0
34.00000000 4.00000000 1.0
35.00000000 4.00000000 1.0
36.00000000 4.00000000 1.0
37.00000000 4.00000000 1.0
38.00000000 4.00000000 1.0
39.00000000 4.00000000 1.0
0.00000000 5.00000000 1.0
1.00000000 5.00000000 1.0
2.00000000 5.00000000 1.0
3.00000000 5.00000000 1.0
4.00000000 5.00000000 1.0
5.00000000 5.00000000 1.0
6.00000000 5.00000000 1.0
7.00000000 5.00000000 1.0
8.00000000 5.00000000 1.0
9.00000000 5.00000000 1.0
10.00000000 5.00000000 1.0
11.00000000 5.00000000 1.0
12.00000000 5.00000000 1.0
13.00000000 5.00000000 1.0
14.00000000 5.00000000 1.0
15.00000000 5.00000000 1.0
16.00000000 5.00000000 1.0
17.00000000 5.00000000 1.0
18.00000000 5.00000000 1.0
19.00000000 5.00000000 1.0
20.00000000 5.00000000 1.0
21.00000000 5.00000000 1.0
22.00000000 5.00000000 1.0
23.00000000 5.00000000 1.0
24.00000000 5.00000000 1.0
25.00000000 5.00000000 1.0
26.00000000 5.00000000 1.0
27.00000000 5.00000000 1.0
28.00000000 5.00000000 1.0
29.00000000 5.00000000 1.0
30.00000000 5.00000000 1.0
31.00000000 5.00000000 1.0
32.00000000 5.00000000 1.0
33.00000000 5.00000000 1.0
34.00000000 5.00000000 1.0
35.00000000 5.00000000 1.0
36.00000000 5.00000000 1.0
37.00000000 5.00000000 1.0
38.00000000 5.00000000 1.0
39.00000000 5.00000000 1.0
0.00000000 6.00000000 1.0
1.00000000 6.00000000 1.0
2.00000000 6.00000000 1.0
3.00000000 6.00000000 1.0
4.00000000 6.00000000 1.0
5.00000000 6.00000000 1.0
6.00000000 6.00000000 1.0
7.00000000 6.00000000 1.0
8.00000000 6.00000000 1.0
9.00000000 6.00000000 1.0
10.00000000 6.00000000 1.0
11.00000000 6.00000000 1.0
12.00000000 6.00000000 1.0
13.00000000 6.00000000 1.0
14.00000000 6.00000000 1.0
15.00000000 6.00000000 1.0
16.00000000 6.00000000 1.0
17.00000000 6.00000000 1.0
18.00000000 6.00000000 1.0
19.00000000 6.00000000 1.0
20.00000000 6.00000000 1.0
21.00000000 6.00000000 1.0
22.00000000 6.00000000 1.0
23.00000000 6.00000000 1.0
24.00000000 6.00000000 1.0
25.00000000 6.00000000 1.0
26.00000000 6.00000000 1.0
27.00000000 6.00000000 1.0
28.00000000 6.00000000 1.0
29.00000000 6.00000000 1.0
30.00000000 6.00000000 1.0
31.00000000 6.00000000 1.0
32.00000000 6.00000000 1.0
33.00000000 6.00000000 1.0
34.00000000 6.00000000 1.0
35.00000000 6.00000000 1.0
36.00000000 6.00000000 1.0
37.00000000 6.00000000 1.0
38.00000000 6.00000000 1.0
39.00000000 6.00000000 1.0
0.00000000 7.00000000 1.0
1.00000000 7.00000000 1.0
2.00000000 7.00000000 1.0
3.00000000 7.00000000 1.0
4.00000000 7.00000000 1.0
5.00000000 7.00000000 1.0
6.00000000 7.00000000 1.0
7.00000000 7.00000000 1.0
8.00000000 7.00000000 1.0
9.00000000 7.00000000 1.0
10.00000000 7.00000000 1.0
11.00000000 7.00000000 1.0
12.00000000 7.00000000 1.0
13.00000000 7.00000000 1.0
14.00000000 7.00000000 1.0
15.00000000 7.00000000 1.0
16.00000000 7.00000000 1.0
17.00000000 7.00000000 1.0
18.00000000 7.00000000 1.0
19.00000000 7.00000000 1.0
20.00000000 7.00000000 1.0
21.00000000 7.00000000 1.0
22.00000000 7.00000000 1.0
23.00000000 7.00000000 1.0
24.00000000 7.00000000 1.0
25.00000000 7.00000000 1.0
26.00000000 7.00000000 1.0
27.00000000 7.00000000 1.0
28.00000000 7.00000000 1.0
29.00000000 7.00000000 1.0
30.00000000 7.00000000 1.0
31.00000000 7.00000000 1.0
32.00000000 7.00000000 1.0
33.00000000 7.00000000 1.0
34.00000000 7.00000000 1.0
35.00000000 7.00000000 1.0
36.00000000 7.00000000 1.0
37.00000000 7.00000000 1.0
38.00000000 7.00000000 1.0
39.00000000 7.00000000 1.0
0.00000000 8.00000000 1.0
1.00000000 8.00000000 1.0
2.00000000 8.00000000 1.0
3.00000000 8.00000000 1.0
4.00000000 8.00000000 1.0
5.00000000 8.00000000 1.0
6.00000000 8.00000000 1.0
7.00000000 8.00000000 1.0
8.00000000 8.00000000 1.0
9.00000000 8.00000000 1.0
10.00000000 8.00000000 1.0
11.00000000 8.00000000 1.0
12.00000000 8.00000000 1.0
13.00000000 8.00000000 1.0
14.00000000 8.00000000 1.0
15.00000000 8.00000000 1.0
16.00000000 8.00000000 1.0
17.00000000 8.00000000 1.0
18.00000000 8.00000000 1.0
19.00000000 8.00000000 1.0
20.00000000 8.00000000 1.0
21.00000000 8.00000000 1.0
22.00000000 8.00000000 1.0
23.00000000 8.00000000 1.0
24.00000000 8.00000000 1.0
25.00000000 8.00000000 1.0
26.00000000 8.00000000 1.0
27.00000000 8.00000000 1.0
28.00000000 8.00000000 1.0
29.00000000 8.00000000 1.0
30.00000000 8.00000000 1.0
31.00000000 8.00000000 1.0
32.00000000 8.00000000 1.0
33.00000000 8.00000000 1.0
34.00000000 8.00000000 1.0
35.00000000 8.00000000 1.0
36.00000000 8.00000000 1.0
37.00000000 8.00000000 1.0
38.00000000 8.00000000 1.0
39.00000000 8.00000000 1.0
0.00000000 9.00000000 1.0
1.00000000 9.00000000 1.0
2.00000000 9.00000000 1.0
3.00000000 9.00000000 1.0
4.00000000 9.00000000 1.0
5.00000000 9.00000000 1.0
6.00000000 9.00000000 1.0
7.00000000 9.00000000 1.0
8.00000000 9.00000000 1.0
[...]
POINT_DATA 1600
VECTORS velocity double
0.00000000 0.00003178 0.0
0.00000027 -0.00003191 0.0
0.00000051 -0.00001114 0.0
0.00000068 0.00005208 0.0
0.00000073 0.00012824 0.0
0.00000069 0.00020230 0.0
0.00000059 0.00026731 0.0
0.00000043 0.00032022 0.0
0.00000024 0.00035992 0.0
0.00000003 0.00038624 0.0
-0.00000019 0.00039957 0.0
-0.00000041 0.00040059 0.0
-0.00000062 0.00039020 0.0
-0.00000083 0.00036941 0.0
-0.00000101 0.00033935 0.0
-0.00000117 0.00030118 0.0
-0.00000131 0.00025611 0.0
-0.00000142 0.00020536 0.0
-0.00000150 0.00015019 0.0
-0.00000155 0.00009183 0.0
-0.00000157 0.00003155 0.0
-0.00000155 -0.00002941 0.0
-0.00000151 -0.00008978 0.0
-0.00000143 -0.00014830 0.0
-0.00000132 -0.00020369 0.0
-0.00000118 -0.00025468 0.0
-0.00000101 -0.00030001 0.0
-0.00000083 -0.00033841 0.0
-0.00000062 -0.00036864 0.0
-0.00000041 -0.00038952 0.0
-0.00000019 -0.00039991 0.0
0.00000003 -0.00039878 0.0
0.00000024 -0.00038525 0.0
0.00000043 -0.00035864 0.0
0.00000059 -0.00031861 0.0
0.00000069 -0.00026536 0.0
0.00000073 -0.00020007 0.0
0.00000067 -0.00012582 0.0
0.00000051 -0.00004961 0.0
0.00000026 0.00001343 0.0
0.00000000 0.00009678 0.0
0.00010733 -0.00009739 0.0
0.00008353 0.00002722 0.0
-0.00015098 0.00030219 0.0
-0.00063144 0.00062566 0.0
-0.00135300 0.00094227 0.0
-0.00228917 0.00122327 0.0
-0.00340238 0.00145438 0.0
-0.00464987 0.00162923 0.0
-0.00598726 0.00174594 0.0
-0.00737064 0.00180531 0.0
-0.00875790 0.00180985 0.0
-0.01010970 0.00176317 0.0
-0.01138998 0.00166962 0.0
-0.01256641 0.00153406 0.0
-0.01361065 0.00136168 0.0
-0.01449854 0.00115790 0.0
-0.01521016 0.00092827 0.0
-0.01572998 0.00067843 0.0
-0.01604680 0.00041408 0.0
-0.01615386 0.00014092 0.0
-0.01604881 -0.00013529 0.0
-0.01573374 -0.00040879 0.0
-0.01521518 -0.00067381 0.0
-0.01450412 -0.00092454 0.0
-0.01361603 -0.00115520 0.0
-0.01257078 -0.00136004 0.0
-0.01139264 -0.00153336 0.0
-0.01011011 -0.00166964 0.0
-0.00875578 -0.00176356 0.0
-0.00736600 -0.00181022 0.0
-0.00598046 -0.00180522 0.0
-0.00464155 -0.00174499 0.0
-0.00339343 -0.00162711 0.0
-0.00228063 -0.00145089 0.0
-0.00134589 -0.00121841 0.0
-0.00062663 -0.00093625 0.0
-0.00014897 -0.00061893 0.0
0.00008276 -0.00029545 0.0
0.00010455 -0.00002145 0.0
0.00000000 0.00010226 0.0
0.00003262 -0.00010341 0.0
-0.00020898 0.00026882 0.0
-0.00082086 0.00091407 0.0
-0.00184548 0.00165027 0.0
-0.00327380 0.00237059 0.0
-0.00506433 0.00301381 0.0
-0.00715620 0.00354625 0.0
-0.00947794 0.00395097 0.0
-0.01195349 0.00422148 0.0
-0.01450617 0.00435799 0.0
-0.01706148 0.00436516 0.0
-0.01954896 0.00425066 0.0
-0.02190360 0.00402425 0.0
-0.02406669 0.00369715 0.0
-0.02598653 0.00328152 0.0
-0.02761887 0.00279024 0.0
-0.02892716 0.00223656 0.0
-0.02988278 0.00163405 0.0
-0.03046514 0.00099644 0.0
-0.03066177 0.00033755 0.0
-0.03046835 -0.00032870 0.0
-0.02988877 -0.00098837 0.0
-0.02893513 -0.00162745 0.0
-0.02762771 -0.00223196 0.0
-0.02599497 -0.00278794 0.0
-0.02407343 -0.00328157 0.0
-0.02190750 -0.00369929 0.0
-0.01954916 -0.00402798 0.0
-0.01705751 -0.00425521 0.0
-0.01449808 -0.00436965 0.0
-0.01194184 -0.00436147 0.0
-0.00946378 -0.00422305 0.0
-0.00714097 -0.00394992 0.0
-0.00504968 -0.00354218 0.0
-0.00326134 -0.00300674 0.0
-0.00183656 -0.00236103 0.0
-0.00081623 -0.00163927 0.0
-0.00020847 -0.00090321 0.0
0.00003028 -0.00026019 0.0
0.00000000 -0.00002785 0.0
-0.00010551 0.00002642 0.0
-0.00066119 0.00082450 0.0
-0.00173290 0.00198578 0.0
-0.00334756 0.00326494 0.0
-0.00548392 0.00450694 0.0
-0.00808620 0.00561609 0.0
-0.01107568 0.00653573 0.0
-0.01435971 0.00723500 0.0
-0.01783866 0.00770043 0.0
-0.02141103 0.00793036 0.0
-0.02497726 0.00793139 0.0
-0.02844252 0.00771591 0.0
-0.03171868 0.00730041 0.0
-0.03472583 0.00670430 0.0
-0.03739332 0.00594901 0.0
-0.03966045 0.00505737 0.0
-0.04147702 0.00405313 0.0
-0.04280362 0.00296066 0.0
-0.04361190 0.00180472 0.0
-0.04388467 0.00061032 0.0
-0.04361600 -0.00059737 0.0
-0.04281128 -0.00179309 0.0
-0.04148721 -0.00295152 0.0
-0.03967178 -0.00404739 0.0
-0.03740417 -0.00505555 0.0
-0.03473456 -0.00595118 0.0
-0.03172382 -0.00671004 0.0
-0.02844295 -0.00730884 0.0
-0.02497238 -0.00772578 0.0
-0.02140084 -0.00794119 0.0
-0.01782384 -0.00793847 0.0
-0.01434155 -0.00770534 0.0
-0.01105595 -0.00723552 0.0
-0.00806695 -0.00653118 0.0
-0.00546718 -0.00560651 0.0
-0.00333503 -0.00449318 0.0
-0.00172555 -0.00324875 0.0
-0.00065895 -0.00196980 0.0
-0.00010708 -0.00081207 0.0
0.00000000 -0.00030750 0.0
-0.00025810 0.00030597 0.0
-0.00116453 0.00173094 0.0
-0.00273482 0.00355607 0.0
-0.00496480 0.00549492 0.0
-0.00781199 0.00735414 0.0
-0.01120292 0.00900702 0.0
-0.01504149 0.01037430 0.0
-0.01921690 0.01141041 0.0
-0.02361034 0.01209387 0.0
-0.02810053 0.01242055 0.0
-0.03256801 0.01239887 0.0
-0.03689851 0.01204642 0.0
-0.04098552 0.01138742 0.0
-0.04473209 0.01045087 0.0
-0.04805230 0.00926922 0.0
-0.05087221 0.00787728 0.0
-0.05313055 0.00631146 0.0
-0.05477918 0.00460929 0.0
-0.05578344 0.00280898 0.0
-0.05612231 0.00094919 0.0
-0.05578855 -0.00093113 0.0
-0.05478877 -0.00279288 0.0
-0.05314339 -0.00459690 0.0
-0.05088666 -0.00630412 0.0
-0.04806644 -0.00787577 0.0
-0.04474395 -0.00927367 0.0
-0.04099331 -0.01046068 0.0
-0.03690085 -0.01140130 0.0
-0.03256407 -0.01206256 0.0
-0.02809023 -0.01241503 0.0
-0.02359435 -0.01243435 0.0
-0.01919662 -0.01210308 0.0
-0.01501891 -0.01141323 0.0
-0.01118039 -0.01036970 0.0
-0.00779190 -0.00899499 0.0
-0.00494920 -0.00733588 0.0
-0.00272502 -0.00547294 0.0
-0.00116070 -0.00353412 0.0
-0.00025901 -0.00171376 0.0
0.00000000 -0.00073306 0.0
-0.00040720 0.00073156 0.0
-0.00167001 0.00299375 0.0
-0.00375009 0.00563615 0.0
-0.00660428 0.00834911 0.0
-0.01016201 0.01091187 0.0
-0.01432778 0.01317279 0.0
-0.01898639 0.01503291 0.0
-0.02400919 0.01643321 0.0
-0.02926004 0.01734472 0.0
-0.03460060 0.01776111 0.0
-0.03989481 0.01769309 0.0
-0.04501248 0.01716409 0.0
-0.04983211 0.01620704 0.0
-0.05424305 0.01486181 0.0
-0.05814711 0.01317328 0.0
-0.06145972 0.01118989 0.0
-0.06411080 0.00896253 0.0
-0.06604523 0.00654372 0.0
-0.06722332 0.00398707 0.0
-0.06762100 0.00134687 0.0
-0.06722996 -0.00132217 0.0
-0.06605775 -0.00396508 0.0
-0.06412779 -0.00652686 0.0
-0.06147924 -0.00895267 0.0
-0.05816687 -0.01118814 0.0
-0.05426070 -0.01317984 0.0
-0.04984547 -0.01487591 0.0
-0.04501977 -0.01622700 0.0
-0.03989491 -0.01718742 0.0
-0.03459318 -0.01771676 0.0
-0.02924564 -0.01778188 0.0
-0.02398923 -0.01735949 0.0
-0.01896298 -0.01643948 0.0
-0.01430354 -0.01502915 0.0
-0.01013969 -0.01315884 0.0
-0.00658635 -0.01088922 0.0
-0.00373828 -0.00832101 0.0
-0.00166485 -0.00560756 0.0
-0.00040761 -0.00297100 0.0
0.00000000 -0.00129601 0.0
-0.00054769 0.00129466 0.0
-0.00215911 0.00460516 0.0
-0.00474575 0.00822279 0.0
-0.00822298 0.01182634 0.0
-0.01248804 0.01517693 0.0
-0.01741967 0.01810441 0.0
-0.02288115 0.02049439 0.0
-0.02872498 0.02227704 0.0
-0.03479789 0.02341762 0.0
-0.04094569 0.02390892 0.0
-0.04701758 0.02376498 0.0
-0.05286970 0.02301620 0.0
-0.05836802 0.02170537 0.0
-0.06339067 0.01988446 0.0
-0.06782957 0.01761218 0.0
-0.07159171 0.01495203 0.0
-0.07459999 0.01197082 0.0
-0.07679387 0.00873760 0.0
-0.07812971 0.00532291 0.0
-0.07858105 0.00179820 0.0
-0.07813873 -0.00176448 0.0
-0.07681103 -0.00529278 0.0
-0.07462361 -0.00871429 0.0
-0.07161945 -0.01195683 0.0
-0.06785869 -0.01494890 0.0
-0.06341828 -0.01762025 0.0
-0.05839138 -0.01990282 0.0
-0.05288649 -0.02173189 0.0
-0.04702619 -0.02304772 0.0
-0.04094539 -0.02379757 0.0
-0.03478894 -0.02393833 0.0
-0.02870868 -0.02343975 0.0
-0.02285968 -0.02228847 0.0
-0.01739586 -0.02049296 0.0
-0.01246504 -0.01808966 0.0
-0.00820375 -0.01515051 0.0
-0.00473255 -0.01179221 0.0
-0.00215293 -0.00818718 0.0
-0.00054770 -0.00457622 0.0
0.00000000 -0.00198796 0.0
-0.00067948 0.00198682 0.0
-0.00262810 0.00655378 0.0
-0.00571268 0.01130737 0.0
-0.00980757 0.01592123 0.0
-0.01477578 0.02014514 0.0
-0.02046763 0.02379627 0.0
-0.02672258 0.02674934 0.0
-0.03337273 0.02892718 0.0
-0.04024705 0.03029195 0.0
-0.04717574 0.03083761 0.0
-0.05399410 0.03058334 0.0
-0.06054598 0.02956808 0.0
-0.06668656 0.02784595 0.0
-0.07228456 0.02548245 0.0
-0.07722386 0.02255148 0.0
-0.08140474 0.01913292 0.0
-0.08474471 0.01531079 0.0
-0.08717903 0.01117192 0.0
-0.08866106 0.00680495 0.0
-0.08916254 0.00229968 0.0
-0.08867367 -0.00225336 0.0
-0.08720317 -0.00676328 0.0
-0.08477835 -0.01113911 0.0
-0.08144505 -0.01529014 0.0
-0.07726744 -0.01912650 0.0
-0.07232780 -0.02255989 0.0
-0.06672595 -0.02550467 0.0
-0.06057842 -0.02787942 0.0
-0.05401724 -0.02960889 0.0
-0.04718824 -0.03062657 0.0
-0.04024873 -0.03087785 0.0
-0.03336459 -0.03032389 0.0
-0.02670678 -0.02894628 0.0
-0.02044719 -0.02675255 0.0
-0.01475424 -0.02378261 0.0
-0.00978846 -0.02011628 0.0
-0.00569893 -0.01588174 0.0
-0.00262131 -0.01126480 0.0
-0.00067920 -0.00651833 0.0
0.00000000 -0.00280241 0.0
-0.00080432 0.00280155 0.0
-0.00308007 0.00882953 0.0
-0.00665411 0.01488141 0.0
-0.01136132 0.02062844 0.0
-0.01702971 0.02581353 0.0
-0.02347937 0.03024593 0.0
-0.03052395 0.03379392 0.0
-0.03797354 0.03637678 0.0
-0.04563842 0.03795683 0.0
-0.05333278 0.03853197 0.0
-0.06087836 0.03812892 0.0
-0.06810752 0.03679724 0.0
-0.07486578 0.03460421 0.0
-0.08101384 0.03163052 0.0
-0.08642908 0.02796672 0.0
-0.09100651 0.02371035 0.0
-0.09465953 0.01896382 0.0
-0.09732035 0.01383274 0.0
-0.09894020 0.00842479 0.0
-0.09948948 0.00284897 0.0
-0.09895789 -0.00278495 0.0
-0.09735444 -0.00836674 0.0
-0.09470750 -0.01378604 0.0
-0.09106485 -0.01893279 0.0
-0.08649357 -0.02369778 0.0
-0.08107990 -0.02797356 0.0
-0.07492882 -0.03165575 0.0
-0.06816340 -0.03464484 0.0
-0.06092373 -0.03684856 0.0
-0.05336540 -0.03818490 0.0
-0.04565739 -0.03858585 0.0
-0.03797944 -0.03800185 0.0
-0.03051872 -0.03640700 0.0
-0.02346618 -0.03380509 0.0
-0.01701251 -0.03023629 0.0
-0.01134429 -0.02578450 0.0
-0.00664096 -0.02058507 0.0
-0.00307320 -0.01483256 0.0
-0.00080391 -0.00878762 0.0
0.00000000 -0.00373529 0.0
-0.00092453 0.00373475 0.0
-0.00352087 0.01142587 0.0
-0.00757913 0.01893967 0.0
-0.01289614 0.02594544 0.0
-0.01926458 0.03218197 0.0
-0.02647304 0.03745440 0.0
-0.03430772 0.04162859 0.0
-0.04255522 0.04462428 0.0
-0.05100600 0.04640760 0.0
-0.05945774 0.04698371 0.0
-0.06771860 0.04638978 0.0
-0.07560993 0.04468856 0.0
-0.08296847 0.04196275 0.0
-0.08964807 0.03831012 0.0
-0.09552079 0.03383944 0.0
-0.10047771 0.02866727 0.0
-0.10442934 0.02291545 0.0
-0.10730583 0.01670923 0.0
-0.10905704 0.01017599 0.0
-0.10965253 0.00344446 0.0
-0.10908162 -0.00335586 0.0
-0.10735340 -0.01009496 0.0
-0.10449678 -0.01664265 0.0
-0.10056067 -0.02286891 0.0
-0.09561395 -0.02864449 0.0
-0.08974560 -0.03384191 0.0
-0.08306443 -0.03833691 0.0
-0.07569877 -0.04201050 0.0
-0.06779562 -0.04475171 0.0
-0.05951948 -0.04646104 0.0
-0.05105058 -0.04705476 0.0
-0.04258250 -0.04646993 0.0
-0.03431930 -0.04467020 0.0
-0.02647210 -0.04165228 0.0
-0.01925546 -0.03745293 0.0
-0.01288375 -0.03215622 0.0
-0.00756812 -0.02590070 0.0
-0.00351464 -0.01888603 0.0
-0.00092418 -0.01137809 0.0
0.00000000 -0.00478495 0.0
-0.00104243 0.00478479 0.0
-0.00395725 0.01434069 0.0
-0.00849916 0.02348159 0.0
-0.01442772 0.03187399 0.0
-0.02149991 0.03925417 0.0
-0.02947168 0.04542616 0.0
-0.03810031 0.05025723 0.0
-0.04714760 0.05367157 0.0
-0.05638312 0.05564313 0.0
-0.06558750 0.05618809 0.0
-0.07455522 0.05535750 0.0
-0.08309703 0.05323037 0.0
-0.09104166 0.04990739 0.0
-0.09823714 0.04550559 0.0
-0.10455146 0.04015376 0.0
-0.10987299 0.03398880 0.0
-0.11411051 0.02715297 0.0
-0.11719312 0.01979184 0.0
-0.11907006 0.01205293 0.0
-0.11971053 0.00408493 0.0
-0.11910360 -0.00396278 0.0
-0.11725823 -0.01194033 0.0
-0.11420336 -0.01969753 0.0
-0.10998815 -0.02708411 0.0
-0.10468230 -0.03395035 0.0
-0.09837624 -0.04014797 0.0
-0.09118137 -0.04553178 0.0
-0.08323003 -0.04996185 0.0
-0.07467507 -0.05330667 0.0
-0.06568914 -0.05544697 0.0
-0.05646332 -0.05628058 0.0
-0.04720520 -0.05572805 0.0
-0.03813634 -0.05373906 0.0
-0.02948918 -0.05029944 0.0
-0.02150357 -0.04543854 0.0
-0.01442321 -0.03923658 0.0
-0.00849223 -0.03183168 0.0
-0.00395259 -0.02342568 0.0
-0.00104239 -0.01428828 0.0
0.00000000 -0.00595200 0.0
-0.00116020 0.00595226 0.0
-0.00439588 0.01757637 0.0
-0.00942606 0.02851176 0.0
-0.01597280 0.03842074 0.0
-0.02375660 0.04703797 0.0
-0.03249947 0.05416903 0.0
-0.04192843 0.05968618 0.0
-0.05177915 0.06352229 0.0
-0.06179944 0.06566342 0.0
-0.07175236 0.06614101 0.0
-0.08141877 0.06502391 0.0
-0.09059927 0.06241087 0.0
-0.09911547 0.05842359 0.0
-0.10681070 0.05320082 0.0
-0.11355018 0.04689324 0.0
-0.11922086 0.03965949 0.0
-0.12373106 0.03166317 0.0
-0.12700987 0.02307065 0.0
-0.12900672 0.01404978 0.0
-0.12969095 0.00476915 0.0
-0.12905152 -0.00460221 0.0
-0.12709704 -0.01389481 0.0
-0.12385591 -0.02293865 0.0
-0.11937673 -0.03156330 0.0
-0.11372879 -0.03959829 0.0
-0.10700276 -0.04687400 0.0
-0.09931125 -0.05322329 0.0
-0.09078924 -0.05848386 0.0
-0.08159432 -0.06250158 0.0
-0.07190641 -0.06513488 0.0
-0.06192699 -0.06626000 0.0
-0.05187766 -0.06577737 0.0
-0.04199803 -0.06361869 0.0
-0.03254288 -0.05975460 0.0
-0.02377875 -0.05420267 0.0
-0.01598015 -0.04703517 0.0
-0.00942563 -0.03838620 0.0
-0.00439395 -0.02845736 0.0
-0.00116080 -0.01752143 0.0
0.00000000 -0.00723909 0.0
-0.00127976 0.00723983 0.0
-0.00484302 0.02113964 0.0
-0.01037119 0.03403994 0.0
-0.01754765 0.04559720 0.0
-0.02605490 0.05554521 0.0
-0.03557944 0.06369357 0.0
-0.04581651 0.06992326 0.0
-0.05647445 0.07418022 0.0
-0.06727848 0.07646745 0.0
-0.07797382 0.07683635 0.0
-0.08832795 0.07537804 0.0
-0.09813205 0.07221497 0.0
-0.10720170 0.06749324 0.0
-0.11537690 0.06137602 0.0
-0.12252159 0.05403793 0.0
-0.12852285 0.04566076 0.0
-0.13328991 0.03643022 0.0
-0.13675307 0.02653381 0.0
-0.13886287 0.01615958 0.0
-0.13958929 0.00549557 0.0
-0.13892139 -0.00527011 0.0
-0.13686719 -0.01594901 0.0
-0.13345393 -0.02635191 0.0
-0.12872864 -0.03628859 0.0
-0.12275901 -0.04556791 0.0
-0.11563444 -0.05399857 0.0
-0.10746715 -0.06139058 0.0
-0.09839326 -0.06755774 0.0
-0.08857367 -0.07232118 0.0
-0.07819445 -0.07551410 0.0
-0.06746677 -0.07698768 0.0
-0.05662605 -0.07661809 0.0
-0.04593030 -0.07431445 0.0
-0.03565751 -0.07002739 0.0
-0.02610229 -0.06375789 0.0
-0.01757163 -0.05556583 0.0
-0.01038021 -0.04557763 0.0
-0.00484525 -0.03399232 0.0
-0.00128140 -0.02108528 0.0
0.00000000 -0.00865067 0.0
-0.00140283 0.00865194 0.0
-0.00530439 0.02504119 0.0
-0.01134510 0.04008064 0.0
-0.01916731 0.05341941 0.0
-0.02841330 0.06479120 0.0
-0.03873198 0.07401225 0.0
-0.04978508 0.08097635 0.0
-0.06125233 0.08564748 0.0
-0.07283574 0.08805086 0.0
-0.08426267 0.08826327 0.0
-0.09528776 0.08640313 0.0
-0.10569387 0.08262108 0.0
-0.11529204 0.07709141 0.0
-0.12392067 0.07000465 0.0
-0.13144431 0.06156156 0.0
-0.13775196 0.05196841 0.0
-0.14275543 0.04143369 0.0
-0.14638765 0.03016604 0.0
-0.14860129 0.01837322 0.0
-0.14936767 0.00626195 0.0
-0.14867611 -0.00596167 0.0
-0.14653379 -0.01809133 0.0
-0.14296608 -0.02991962 0.0
-0.13801735 -0.04123732 0.0
-0.13175220 -0.05183307 0.0
-0.12425701 -0.06149376 0.0
-0.11564175 -0.07000584 0.0
-0.10604177 -0.07715773 0.0
-0.09561943 -0.08274351 0.0
-0.08456549 -0.08656804 0.0
-0.07309969 -0.08845348 0.0
-0.06147073 -0.08824705 0.0
-0.04995508 -0.08583010 0.0
-0.03885475 -0.08112772 0.0
-0.02849376 -0.07411888 0.0
-0.01921350 -0.06484609 0.0
-0.01136701 -0.05342411 0.0
-0.00531247 -0.04004686 0.0
-0.00140601 -0.02499174 0.0
0.00000000 -0.01019286 0.0
-0.00153097 0.01019471 0.0
-0.00578520 0.02929542 0.0
-0.01235738 0.04665282 0.0
-0.02084537 0.06190740 0.0
-0.03084804 0.07479387 0.0
-0.04197407 0.08513828 0.0
-0.05384961 0.09285189 0.0
-0.06612453 0.09792240 0.0
-0.07847711 0.10040344 0.0
-0.09061714 0.10040330 0.0
-0.10228747 0.09807347 0.0
-0.11326423 0.09359784 0.0
-0.12335589 0.08718307 0.0
-0.13240157 0.07905033 0.0
-0.14026868 0.06942867 0.0
-0.14685043 0.05855015 0.0
-0.15206320 0.04664646 0.0
-0.15584422 0.03394706 0.0
-0.15814956 0.02067856 0.0
-0.15895261 0.00706500 0.0
-0.15824322 -0.00667106 0.0
-0.15602745 -0.02030710 0.0
-0.15232799 -0.03361909 0.0
-0.14718522 -0.04638009 0.0
-0.14065891 -0.05835937 0.0
-0.13283039 -0.06932228 0.0
-0.12380503 -0.07903120 0.0
-0.11371500 -0.08724777 0.0
-0.10272185 -0.09373666 0.0
-0.09101890 -0.09827100 0.0
-0.07883288 -0.10063950 0.0
-0.06642473 -0.10065520 0.0
-0.05408918 -0.09816565 0.0
-0.04215278 -0.09306412 0.0
-0.03097042 -0.08530124 0.0
-0.02092011 -0.07489640 0.0
-0.01239618 -0.06194804 0.0
-0.00580110 -0.04664193 0.0
-0.00153625 -0.02925659 0.0
0.00000000 -0.01187330 0.0
-0.00166560 0.01187580 0.0
-0.00629031 0.03392013 0.0
-0.01341688 0.05377940 0.0
-0.02259398 0.07108451 0.0
-0.03337295 0.08557283 0.0
-0.04531884 0.09708417 0.0
-0.05801984 0.10555289 0.0
-0.07109459 0.11099714 0.0
-0.08419738 0.11350624 0.0
-0.09702118 0.11322710 0.0
-0.10929862 0.11035090 0.0
-0.12080133 0.10510055 0.0
-0.13133793 0.09771968 0.0
-0.14075110 0.08846350 0.0
-0.14891407 0.07759164 0.0
-0.15572695 0.06536303 0.0
-0.16111316 0.05203267 0.0
-0.16501622 0.03785012 0.0
-0.16739706 0.02305940 0.0
-0.16823209 0.00790002 0.0
-0.16751197 -0.00739118 0.0
-0.16524132 -0.02257775 0.0
-0.16143920 -0.03742121 0.0
-0.15614051 -0.05167878 0.0
-0.14939814 -0.06510174 0.0
-0.14128583 -0.07743459 0.0
-0.13190157 -0.08841546 0.0
-0.12137132 -0.09777802 0.0
-0.10985285 -0.10525513 0.0
-0.09753927 -0.11058458 0.0
-0.08466200 -0.11351677 0.0
-0.07149263 -0.11382456 0.0
-0.05834340 -0.11131488 0.0
-0.04556578 -0.10584173 0.0
-0.03354703 -0.09731999 0.0
-0.02270438 -0.08573905 0.0
-0.01347705 -0.07117536 0.0
-0.00631628 -0.05380271 0.0
-0.00167362 -0.03389925 0.0
0.00000000 -0.01370117 0.0
-0.00180810 0.01370440 0.0
-0.00682439 0.03893641 0.0
-0.01453193 0.06148694 0.0
-0.02442415 0.08097673 0.0
-0.03599956 0.09714824 0.0
-0.04877545 0.10986006 0.0
-0.06229920 0.11907664 0.0
-0.07615689 0.12485483 0.0
-0.08997886 0.12732821 0.0
-0.10344254 0.12669079 0.0
-0.11627266 0.12318103 0.0
-0.12823942 0.11706731 0.0
-0.13915508 0.10863533 0.0
-0.14886955 0.09817797 0.0
-0.15726547 0.08598757 0.0
-0.16425322 0.07235078 0.0
-0.16976613 0.05754558 0.0
-0.17375637 0.04184036 0.0
-0.17619151 0.02549454 0.0
-0.17705201 0.00876052 0.0
-0.17632973 -0.00811345 0.0
-0.17402749 -0.02488000 0.0
-0.17015965 -0.04128904 0.0
-0.16475388 -0.05708455 0.0
-0.15785379 -0.07200183 0.0
-0.14952257 -0.08576581 0.0
-0.13984739 -0.09809064 0.0
-0.12894432 -0.10868109 0.0
-0.11696352 -0.11723592 0.0
-0.10409432 -0.12345378 0.0
-0.09056964 -0.12704145 0.0
-0.07666935 -0.12772485 0.0
-0.06272190 -0.12526233 0.0
-0.04910373 -0.11945991 0.0
-0.03623592 -0.11018780 0.0
-0.02457798 -0.09739700 0.0
-0.01461846 -0.08113488 0.0
-0.00686294 -0.06155823 0.0
-0.00181961 -0.03894258 0.0
0.00000000 -0.01568721 0.0
-0.00195990 0.01569127 0.0
-0.00739221 0.04436872 0.0
-0.01571078 0.06980552 0.0
-0.02634614 0.09161209 0.0
-0.03873740 0.10953951 0.0
-0.05234902 0.12347168 0.0
-0.06668438 0.13341200 0.0
-0.08129565 0.13946609 0.0
-0.09578974 0.14182230 0.0
-0.10983058 0.14073164 0.0
-0.12313827 0.13648872 0.0
-0.13548563 0.12941466 0.0
-0.14669303 0.11984274 0.0
-0.15662224 0.10810717 0.0
-0.16516969 0.09453502 0.0
-0.17225997 0.07944105 0.0
-0.17783977 0.06312539 0.0
-0.18187267 0.04587326 0.0
-0.18433485 0.02795673 0.0
-0.18521210 0.00963777 0.0
-0.18449789 -0.00882767 0.0
-0.18219284 -0.02718504 0.0
-0.17830548 -0.04517640 0.0
-0.17285420 -0.06253582 0.0
-0.16587059 -0.07898544 0.0
-0.15740384 -0.09423257 0.0
-0.14752621 -0.10796827 0.0
-0.13633938 -0.11986792 0.0
-0.12398118 -0.12959413 0.0
-0.11063247 -0.13680249 0.0
-0.09652349 -0.14115043 0.0
-0.08193902 -0.14230932 0.0
-0.06722163 -0.13997972 0.0
-0.05277222 -0.13390932 0.0
-0.03904718 -0.12391284 0.0
-0.02655171 -0.10989248 0.0
-0.01582906 -0.09185752 0.0
-0.00744610 -0.06994119 0.0
-0.00197571 -0.04441297 0.0
0.00000000 -0.01784395 0.0
-0.00212258 0.01784894 0.0
-0.00799896 0.05024510 0.0
-0.01696208 0.07876864 0.0
-0.02837004 0.10302004 0.0
-0.04159441 0.12276388 0.0
-0.05604074 0.13791801 0.0