# vtk DataFile Version 4.0
2D velocity field
ASCII
DATASET STRUCTURED_GRID
DIMENSIONS 40 40 1
POINTS 1600 float
0.00000000 0.00000000 1.0
1.00000000 0.00000000 1.0
2.00000000 0.00000000 1.0
3.00000000 0.00000000 1.0
4.00000000 0.00000000 1.0
5.00000000 0.00000000 1.0
6.00000000 0.00000000 1.0
7.00000000 0.00000000 1.0
8.00000000 0.00000000 1.0
9.00000000 0.00000000 1.0
10.00000000 0.00000000 1.0
11.00000000 0.00000000 1.0
12.00000000 0.00000000 1.0
13.00000000 0.00000000 1.0
14.00000000 0.00000000 1.0
15.00000000 0.00000000 1.0
16.00000000 0.00000000 1.0
17.00000000 0.00000000 1.0
18.00000000 0.00000000 1.0
19.00000000 0.00000000 1.0
20.00000000 0.00000000 1.0
21.00000000 0.00000000 1.0
22.00000000 0.00000000 1.0
23.00000000 0.00000000 1.0
24.00000000 0.00000000 1.0
25.00000000 0.00000000 1.0
26.00000000 0.00000000 1.0
27.00000000 0.00000000 1.0
28.00000000 0.00000000 1.0
29.00000000 0.00000000 1.0
30.00000000 0.00000000 1.0
31.00000000 0.00000000 1.0
32.00000000 0.00000000 1.0
33.00000000 0.00000000 1.0
34.00000000 0.00000000 1.0
35.00000000 0.00000000 1.0
36.00000000 0.00000000 1.0
37.00000000 0.00000000 1.0
38.00000000 0.00000000 1.0
39.00000000 0.00000000 1.0
0.00000000 1.00000000 1.0
1.00000000 1.00000000 1.0
2.00000000 1.00000000 1.0
3.00000000 1.00000000 1.0
4.00000000 1.00000000 1.0
5.00000000 1.00000000 1.0
6.00000000 1.00000000 1.0
7.00000000 1.00000000 1.0
8.00000000 1.00000000 1.0
9.00000000 1.00000000 1.0
10.00000000 1.00000000 1.0
11.00000000 1.00000000 1.0
12.00000000 1.00000000 1.0
13.00000000 1.00000000 1.0
14.00000000 1.00000000 1.0
15.00000000 1.00000000 1.0
16.00000000 1.00000000 1.0
17.00000000 1.00000000 1.0
18.00000000 1.00000000 1.0
19.00000000 1.00000000 1.0
20.00000000 1.00000000 1.0
21.00000000 1.00000000 1.0
22.00000000 1.00000000 1.0
23.00000000 1.00000000 1.0
24.00000000 1.00000000 1.0
25.00000000 1.00000000 1.0
26.00000000 1.00000000 1.0
27.00000000 1.00000000 1.0
28.00000000 1.00000000 1.0
29.00000000 1.00000000 1.0
30.00000000 1.00000000 1.0
31.00000000 1.00000000 1.0
32.00000000 1.00000000 1.0
33.00000000 1.00000000 1.0
34.00000000 1.00000000 1.0
35.00000000 1.00000000 1.0
36.00000000 1.00000000 1.0
37.00000000 1.00000000 1.0
38.00000000 1.00000000 1.0
39.00000000 1.00000000 1.0
0.00000000 2.00000000 1.0
1.00000000 2.00000000 1.0
2.00000000 2.00000000 1.0
3.00000000 2.00000000 1.0
4.00000000 2.00000000 1.0
5.00000000 2.00000000 1.0
6.00000000 2.00000000 1.0
7.00000000 2.00000000 1.0
8.00000000 2.00000000 1.0
9.00000000 2.00000000 1.0
10.00000000 2.00000000 1.0
11.00000000 2.00000000 1.0
12.00000000 2.00000000 1.0
13.00000000 2.00000000 1.0
14.00000000 2.00000000 1.0
15.00000000 2.00000000 1.0
16.00000000 2.00000000 1.0
17.00000000 2.00000000 1.0
18.00000000 2.00000000 1.0
19.00000000 2.00000000 1.0
20.00000000 2.00000000 1.0
21.00000000 2.00000000 1.0
22.00000000 2.00000000 1.0
23.00000000 2.00000000 1.0
24.00000000 2.00000000 1.0
25.00000000 2.00000000 1.0
26.00000000 2.00000000 1.0
27.00000000 2.00000000 1.0
28.00000000 2.00000000 1.0
29.00000000 2.00000000 1.0
30.00000000 2.00000000 1.0
31.00000000 2.00000000 1.0
32.00000000 2.00000000 1.0
33.00000000 2.00000000 1.0
34.00000000 2.00000000 1.0
35.00000000 2.00000000 1.0
36.00000000 2.00000000 1.0
37.00000000 2.00000000 1.0
38.00000000 2.00000000 1.0
39.00000000 2.00000000 1.0
0.00000000 3.00000000 1.0
1.00000000 3.00000000 1.0
2.00000000 3.00000000 1.0
3.00000000 3.00000000 1.0
4.00000000 3.00000000 1.0
5.00000000 3.00000000 1.0
6.00000000 3.00000000 1.0
7.00000000 3.00000000 1.0
8.00000000 3.00000000 1.0
9.00000000 3.00000000 1.0
10.00000000 3.00000000 1.0
11.00000000 3.00000000 1.0
12.00000000 3.00000000 1.0
13.00000000 3.00000000 1.0
14.00000000 3.00000000 1.0
15.00000000 3.00000000 1.0
16.00000000 3.00000000 1.0
17.00000000 3.00000000 1.0
18.00000000 3.00000000 1.0
19.00000000 3.00000000 1.0
20.00000000 3.00000000 1.0
21.00000000 3.00000000 1.0
22.00000000 3.00000000 1.0
23.00000000 3.00000000 1.0
24.00000000 3.00000000 1.0
25.00000000 3.00000000 1.0
26.00000000 3.00000000 1.0
27.00000000 3.00000000 1.0
28.00000000 3.00000000 1.0
29.00000000 3.00000000 1.0
30.00000000 3.00000000 1.0
31.00000000 3.00000000 1.0
32.00000000 3.00000000 1.0
33.00000000 3.00000000 1.0
34.00000000 3.00000000 1.0
35.00000000 3.00000000 1.0
36.00000000 3.00000000 1.0
37.00000000 3.00000000 1.0
38.00000000 3.00000000 1.0
39.00000000 3.00000000 1.0
0.00000000 4.00000000 1.0
1.00000000 4.00000000 1.0
2.00000000 4.00000000 1.0
3.00000000 4.00000000 1.0
4.00000000 4.00000000 1.0
5.00000000 4.00000000 1.0
6.00000000 4.00000000 1.0
7.00000000 4.00000000 1.0
8.00000000 4.00000000 1.0
9.00000000 4.00000000 1.0
10.00000000 4.00000000 1.0
11.00000000 4.00000000 1.0
12.00000000 4.00000000 1.0
13.00000000 4.00000000 1.0
14.00000000 4.00000000 1.0
15.00000000 4.00000000 1.0
16.00000000 4.00000000 1.0
17.00000000 4.00000000 1.0
18.00000000 4.00000000 1.0
19.00000000 4.00000000 1.0
20.00000000 4.00000000 1.0
21.00000000 4.00000000 1.0
22.00000000 4.00000000 1.0
23.00000000 4.00000000 1.0
24.00000000 4.00000000 1.0
25.00000000 4.00000000 1.0
26.00000000 4.00000000 1.0
27.00000000 4.00000000 1.0
28.00000000 4.00000000 1.0
29.00000000 4.00000000 1.0
30.00000000 4.00000000 1.0
31.00000000 4.00000000 1.0
32.00000000 4.00000000 1.0
33.00000000 4.00000000 1.0
34.00000000 4.00000000 1.0
35.00000000 4.00000000 1.0
36.00000000 4.00000000 1.0
37.00000000 4.00000000 1.0
38.00000000 4.00000000 1.0
39.00000000 4.00000000 1.0
0.00000000 5.00000000 1.0
1.00000000 5.00000000 1.0
2.00000000 5.00000000 1.0
3.00000000 5.00000000 1.0
4.00000000 5.00000000 1.0
5.00000000 5.00000000 1.0
6.00000000 5.00000000 1.0
7.00000000 5.00000000 1.0
8.00000000 5.00000000 1.0
9.00000000 5.00000000 1.0
10.00000000 5.00000000 1.0
11.00000000 5.00000000 1.0
12.00000000 5.00000000 1.0
13.00000000 5.00000000 1.0
14.00000000 5.00000000 1.0
15.00000000 5.00000000 1.0
16.00000000 5.00000000 1.0
17.00000000 5.00000000 1.0
18.00000000 5.00000000 1.0
19.00000000 5.00000000 1.0
20.00000000 5.00000000 1.0
21.00000000 5.00000000 1.0
22.00000000 5.00000000 1.0
23.00000000 5.00000000 1.0
24.00000000 5.00000000 1.0
25.00000000 5.00000000 1.0
26.00000000 5.00000000 1.0
27.00000000 5.00000000 1.0
28.00000000 5.00000000 1.0
29.00000000 5.00000000 1.0
30.00000000 5.00000000 1.0
31.00000000 5.00000000 1.0
32.00000000 5.00000000 1.0
33.00000000 5.00000000 1.0
34.00000000 5.00000000 1.0
35.00000000 5.00000000 1.0
36.00000000 5.00000000 1.0
37.00000000 5.00000000 1.0
38.00000000 5.00000000 1.0
39.00000000 5.00000000 1.0
0.00000000 6.00000000 1.0
1.00000000 6.00000000 1.0
2.00000000 6.00000000 1.0
3.00000000 6.00000000 1.0
4.00000000 6.00000000 1.0
5.00000000 6.00000000 1.0
6.00000000 6.00000000 1.0
7.00000000 6.00000000 1.0
8.00000000 6.00000000 1.0
9.00000000 6.00000000 1.0
10.00000000 6.00000000 1.0
11.00000000 6.00000000 1.0
12.00000000 6.00000000 1.0
13.00000000 6.00000000 1.0
14.00000000 6.00000000 1.0
15.00000000 6.00000000 1.0
16.00000000 6.00000000 1.0
17.00000000 6.00000000 1.0
18.00000000 6.00000000 1.0
19.00000000 6.00000000 1.0
20.00000000 6.00000000 1.0
21.00000000 6.00000000 1.0
22.00000000 6.00000000 1.0
23.00000000 6.00000000 1.0
24.00000000 6.00000000 1.0
25.00000000 6.00000000 1.0
26.00000000 6.00000000 1.0
27.00000000 6.00000000 1.0
28.00000000 6.00000000 1.0
29.00000000 6.00000000 1.0
30.00000000 6.00000000 1.0
31.00000000 6.00000000 1.0
32.00000000 6.00000000 1.0
33.00000000 6.00000000 1.0
34.00000000 6.00000000 1.0
35.00000000 6.00000000 1.0
36.00000000 6.00000000 1.0
37.00000000 6.00000000 1.0
38.00000000 6.00000000 1.0
39.00000000 6.00000000 1.0
0.00000000 7.00000000 1.0
1.00000000 7.00000000 1.0
2.00000000 7.00000000 1.0
3.00000000 7.00000000 1.0
4.00000000 7.00000000 1.0
5.00000000 7.00000000 1.0
6.00000000 7.00000000 1.0
7.00000000 7.00000000 1.0
8.00000000 7.00000000 1.0
9.00000000 7.00000000 1.0
10.00000000 7.00000000 1.0
11.00000000 7.00000000 1.0
12.00000000 7.00000000 1.0
13.00000000 7.00000000 1.0
14.00000000 7.00000000 1.0
15.00000000 7.00000000 1.0
16.00000000 7.00000000 1.0
17.00000000 7.00000000 1.0
18.00000000 7.00000000 1.0
19.00000000 7.00000000 1.0
20.00000000 7.00000000 1.0
21.00000000 7.00000000 1.0
22.00000000 7.00000000 1.0
23.00000000 7.00000000 1.0
24.00000000 7.00000000 1.0
25.00000000 7.00000000 1.0
26.00000000 7.00000000 1.0
27.00000000 7.00000000 1.0
28.00000000 7.00000000 1.0
29.00000000 7.00000000 1.0
30.00000000 7.00000000 1.0
31.00000000 7.00000000 1.0
32.00000000 7.00000000 1.0
33.00000000 7.00000000 1.0
34.00000000 7.00000000 1.0
35.00000000 7.00000000 1.0
36.00000000 7.00000000 1.0
37.00000000 7.00000000 1.0
38.00000000 7.00000000 1.0
39.00000000 7.00000000 1.0
0.00000000 8.00000000 1.0
1.00000000 8.00000000 1.0
2.00000000 8.00000000 1.0
3.00000000 8.00000000 1.0
4.00000000 8.00000000 1.0
5.00000000 8.00000000 1.0
6.00000000 8.00000000 1.0
7.00000000 8.00000000 1.0
8.00000000 8.00000000 1.0
9.00000000 8.00000000 1.0
10.00000000 8.00000000 1.0
11.00000000 8.00000000 1.0
12.00000000 8.00000000 1.0
13.00000000 8.00000000 1.0
14.00000000 8.00000000 1.0
15.00000000 8.00000000 1.0
16.00000000 8.00000000 1.0
17.00000000 8.00000000 1.0
18.00000000 8.00000000 1.0
19.00000000 8.00000000 1.0
20.00000000 8.00000000 1.0
21.00000000 8.00000000 1.0
22.00000000 8.00000000 1.0
23.00000000 8.00000000 1.0
24.00000000 8.00000000 1.0
25.00000000 8.00000000 1.0
26.00000000 8.00000000 1.0
27.00000000 8.00000000 1.0
28.00000000 8.00000000 1.0
29.00000000 8.00000000 1.0
30.00000000 8.00000000 1.0
31.00000000 8.00000000 1.0
32.00000000 8.00000000 1.0
33.00000000 8.00000000 1.0
34.00000000 8.00000000 1.0
35.00000000 8.00000000 1.0
36.00000000 8.00000000 1.0
37.00000000 8.00000000 1.0
38.00000000 8.00000000 1.0
39.00000000 8.00000000 1.0
0.00000000 9.00000000 1.0
1.00000000 9.00000000 1.0
2.00000000 9.00000000 1.0
3.00000000 9.00000000 1.0
4.00000000 9.00000000 1.0
5.00000000 9.00000000 1.0
6.00000000 9.00000000 1.0
7.00000000 9.00000000 1.0
8.00000000 9.00000000 1.0
[...]
POINT_DATA 1600
VECTORS velocity double
0.00000000 0.00002153 0.0
0.00000025 -0.00002163 0.0
0.00000044 0.00000174 0.0
0.00000055 0.00005762 0.0
0.00000058 0.00012210 0.0
0.00000053 0.00018328 0.0
0.00000042 0.00023585 0.0
0.00000028 0.00027769 0.0
0.00000011 0.00030816 0.0
-0.00000008 0.00032738 0.0
-0.00000027 0.00033587 0.0
-0.00000046 0.00033436 0.0
-0.00000065 0.00032372 0.0
-0.00000082 0.00030487 0.0
-0.00000097 0.00027881 0.0
-0.00000111 0.00024652 0.0
-0.00000123 0.00020898 0.0
-0.00000132 0.00016719 0.0
-0.00000139 0.00012209 0.0
-0.00000143 0.00007465 0.0
-0.00000144 0.00002578 0.0
-0.00000143 -0.00002359 0.0
-0.00000139 -0.00007252 0.0
-0.00000132 -0.00012010 0.0
-0.00000123 -0.00016537 0.0
-0.00000111 -0.00020737 0.0
-0.00000098 -0.00024512 0.0
-0.00000082 -0.00027761 0.0
-0.00000065 -0.00030385 0.0
-0.00000046 -0.00032280 0.0
-0.00000027 -0.00033349 0.0
-0.00000008 -0.00033496 0.0
0.00000011 -0.00032636 0.0
0.00000028 -0.00030696 0.0
0.00000042 -0.00027626 0.0
0.00000053 -0.00023418 0.0
0.00000058 -0.00018137 0.0
0.00000055 -0.00011999 0.0
0.00000044 -0.00005540 0.0
0.00000024 0.00000043 0.0
0.00000000 0.00006520 0.0
0.00008979 -0.00006570 0.0
0.00004693 0.00006041 0.0
-0.00018071 0.00030195 0.0
-0.00061635 0.00057554 0.0
-0.00125117 0.00083706 0.0
-0.00205976 0.00106445 0.0
-0.00300863 0.00124742 0.0
-0.00406104 0.00138197 0.0
-0.00517969 0.00146766 0.0
-0.00632840 0.00150605 0.0
-0.00747306 0.00149995 0.0
-0.00858227 0.00145293 0.0
-0.00962767 0.00136900 0.0
-0.01058421 0.00125243 0.0
-0.01143020 0.00110764 0.0
-0.01214735 0.00093905 0.0
-0.01272079 0.00075108 0.0
-0.01313896 0.00054809 0.0
-0.01339365 0.00033438 0.0
-0.01347988 0.00011420 0.0
-0.01339592 -0.00010823 0.0
-0.01314328 -0.00032870 0.0
-0.01272674 -0.00054295 0.0
-0.01215438 -0.00074669 0.0
-0.01143764 -0.00093553 0.0
-0.01059137 -0.00110503 0.0
-0.00963389 -0.00125068 0.0
-0.00858701 -0.00136796 0.0
-0.00747597 -0.00145237 0.0
-0.00632933 -0.00149958 0.0
-0.00517874 -0.00150554 0.0
-0.00405856 -0.00146669 0.0
-0.00300518 -0.00138026 0.0
-0.00205604 -0.00124477 0.0
-0.00124794 -0.00106079 0.0
-0.00061430 -0.00083246 0.0
-0.00018036 -0.00057023 0.0
0.00004543 -0.00029638 0.0
0.00008686 -0.00005532 0.0
0.00000000 0.00005535 0.0
0.00002000 -0.00005628 0.0
-0.00021764 0.00029805 0.0
-0.00077632 0.00086063 0.0
-0.00168263 0.00148184 0.0
-0.00292187 0.00207630 0.0
-0.00445412 0.00259671 0.0
-0.00622511 0.00301840 0.0
-0.00817336 0.00333022 0.0
-0.01023498 0.00352928 0.0
-0.01234680 0.00361787 0.0
-0.01444844 0.00360159 0.0
-0.01648369 0.00348819 0.0
-0.01840142 0.00328672 0.0
-0.02015608 0.00300709 0.0
-0.02170808 0.00265963 0.0
-0.02302389 0.00225486 0.0
-0.02407613 0.00180332 0.0
-0.02484352 0.00131549 0.0
-0.02531088 0.00080173 0.0
-0.02546900 0.00027233 0.0
-0.02531473 -0.00026251 0.0
-0.02485087 -0.00079256 0.0
-0.02408628 -0.00130754 0.0
-0.02303590 -0.00179706 0.0
-0.02172085 -0.00225058 0.0
-0.02016845 -0.00265743 0.0
-0.01841230 -0.00300684 0.0
-0.01649218 -0.00328808 0.0
-0.01445390 -0.00349065 0.0
-0.01234898 -0.00360450 0.0
-0.01023403 -0.00362049 0.0
-0.00816982 -0.00353090 0.0
-0.00621985 -0.00333022 0.0
-0.00444826 -0.00301636 0.0
-0.00291657 -0.00259248 0.0
-0.00167896 -0.00207007 0.0
-0.00077499 -0.00147421 0.0
-0.00021874 -0.00085262 0.0
0.00001721 -0.00029126 0.0
0.00000000 -0.00007219 0.0
-0.00009978 0.00007104 0.0
-0.00060587 0.00080413 0.0
-0.00155442 0.00180918 0.0
-0.00295800 0.00288543 0.0
-0.00479074 0.00390903 0.0
-0.00699993 0.00480589 0.0
-0.00951569 0.00553417 0.0
-0.01225850 0.00607302 0.0
-0.01514474 0.00641552 0.0
-0.01809083 0.00656396 0.0
-0.02101611 0.00652687 0.0
-0.02384487 0.00631695 0.0
-0.02650779 0.00594964 0.0
-0.02894283 0.00544213 0.0
-0.03109581 0.00481260 0.0
-0.03292070 0.00407975 0.0
-0.03437981 0.00326244 0.0
-0.03544383 0.00237950 0.0
-0.03609175 0.00144966 0.0
-0.03631091 0.00049148 0.0
-0.03609691 -0.00047650 0.0
-0.03545369 -0.00143578 0.0
-0.03439349 -0.00236774 0.0
-0.03293695 -0.00325359 0.0
-0.03111321 -0.00407433 0.0
-0.02895986 -0.00481077 0.0
-0.02652301 -0.00544369 0.0
-0.02385707 -0.00595402 0.0
-0.02102444 -0.00632328 0.0
-0.01809491 -0.00653403 0.0
-0.01514468 -0.00657072 0.0
-0.01225493 -0.00642065 0.0
-0.00950967 -0.00607548 0.0
-0.00699280 -0.00553323 0.0
-0.00478397 -0.00480131 0.0
-0.00295290 -0.00390114 0.0
-0.00155187 -0.00287524 0.0
-0.00060607 -0.00179842 0.0
-0.00010207 -0.00079526 0.0
0.00000000 -0.00032549 0.0
-0.00022800 0.00032428 0.0
-0.00102746 0.00160359 0.0
-0.00239135 0.00317307 0.0
-0.00430588 0.00479996 0.0
-0.00672719 0.00633034 0.0
-0.00958750 0.00766621 0.0
-0.01280222 0.00874888 0.0
-0.01627650 0.00954730 0.0
-0.01991077 0.01004979 0.0
-0.02360516 0.01025835 0.0
-0.02726286 0.01018457 0.0
-0.03079263 0.00984671 0.0
-0.03411055 0.00926757 0.0
-0.03714130 0.00847288 0.0
-0.03981889 0.00749020 0.0
-0.04208719 0.00634805 0.0
-0.04390012 0.00507537 0.0
-0.04522179 0.00370118 0.0
-0.04602650 0.00225436 0.0
-0.04629871 0.00076370 0.0
-0.04603306 -0.00074215 0.0
-0.04523435 -0.00223449 0.0
-0.04391760 -0.00368449 0.0
-0.04210811 -0.00506309 0.0
-0.03984149 -0.00634094 0.0
-0.03716372 -0.00748854 0.0
-0.03413102 -0.00847639 0.0
-0.03080962 -0.00927543 0.0
-0.02727526 -0.00985763 0.0
-0.02361239 -0.01019690 0.0
-0.01991286 -0.01027025 0.0
-0.01627408 -0.01005943 0.0
-0.01279645 -0.00955312 0.0
-0.00957991 -0.00874977 0.0
-0.00671946 -0.00766175 0.0
-0.00429959 -0.00632101 0.0
-0.00238765 -0.00478718 0.0
-0.00102678 -0.00315929 0.0
-0.00022987 -0.00159217 0.0
0.00000000 -0.00069915 0.0
-0.00035089 0.00069801 0.0
-0.00144452 0.00269722 0.0
-0.00322896 0.00495751 0.0
-0.00565800 0.00722899 0.0
-0.00866439 0.00933674 0.0
-0.01216198 0.01116379 0.0
-0.01605014 0.01263705 0.0
-0.02021910 0.01371626 0.0
-0.02455483 0.01438552 0.0
-0.02894338 0.01464690 0.0
-0.03327434 0.01451554 0.0
-0.03744362 0.01401599 0.0
-0.04135535 0.01317930 0.0
-0.04492339 0.01204092 0.0
-0.04807222 0.01063903 0.0
-0.05073752 0.00901335 0.0
-0.05286649 0.00720434 0.0
-0.05441795 0.00525264 0.0
-0.05536243 0.00319884 0.0
-0.05568210 0.00108336 0.0
-0.05537078 -0.00105347 0.0
-0.05443399 -0.00317129 0.0
-0.05288892 -0.00522956 0.0
-0.05076458 -0.00718743 0.0
-0.04810179 -0.00900373 0.0
-0.04495321 -0.01063712 0.0
-0.04138323 -0.01204637 0.0
-0.03746764 -0.01319102 0.0
-0.03329305 -0.01403222 0.0
-0.02895591 -0.01453403 0.0
-0.02456104 -0.01466512 0.0
-0.02021954 -0.01440093 0.0
-0.01604600 -0.01372665 0.0
-0.01215495 -0.01264083 0.0
-0.00865641 -0.01116029 0.0
-0.00565095 -0.00932647 0.0
-0.00322436 -0.00721377 0.0
-0.00144312 -0.00494053 0.0
-0.00035244 -0.00268285 0.0
0.00000000 -0.00118501 0.0
-0.00046545 0.00118400 0.0
-0.00184513 0.00407690 0.0
-0.00404619 0.00715857 0.0
-0.00698835 0.01017115 0.0
-0.01057774 0.01292613 0.0
-0.01470676 0.01529281 0.0
-0.01925677 0.01718706 0.0
-0.02410213 0.01856162 0.0
-0.02911443 0.01939782 0.0
-0.03416646 0.01969892 0.0
-0.03913558 0.01948467 0.0
-0.04390647 0.01878688 0.0
-0.04837316 0.01764598 0.0
-0.05244049 0.01610825 0.0
-0.05602515 0.01422369 0.0
-0.05905622 0.01204443 0.0
-0.06147553 0.00962365 0.0
-0.06323774 0.00701485 0.0
-0.06431037 0.00427147 0.0
-0.06467379 0.00144679 0.0
-0.06432120 -0.00140606 0.0
-0.06325859 -0.00423389 0.0
-0.06150488 -0.00698327 0.0
-0.05909192 -0.00960039 0.0
-0.05606463 -0.01203103 0.0
-0.05248097 -0.01422077 0.0
-0.04841191 -0.01611543 0.0
-0.04394105 -0.01766188 0.0
-0.03916403 -0.01880924 0.0
-0.03418752 -0.01951055 0.0
-0.02912765 -0.01972498 0.0
-0.02410791 -0.01942068 0.0
-0.01925628 -0.01857827 0.0
-0.01470183 -0.01719528 0.0
-0.01057059 -0.01529153 0.0
-0.00698125 -0.01291580 0.0
-0.00404109 -0.01015393 0.0
-0.00184322 -0.00713840 0.0
-0.00046677 -0.00405930 0.0
0.00000000 -0.00177607 0.0
-0.00057273 0.00177527 0.0
-0.00222961 0.00573378 0.0
-0.00484186 0.00977083 0.0
-0.00829573 0.01362502 0.0
-0.01246906 0.01709946 0.0
-0.01723047 0.02005421 0.0
-0.02244118 0.02239778 0.0
-0.02795824 0.02407867 0.0
-0.03363809 0.02507767 0.0
-0.03934022 0.02540105 0.0
-0.04493024 0.02507469 0.0
-0.05028252 0.02413915 0.0
-0.05528211 0.02264557 0.0
-0.05982617 0.02065231 0.0
-0.06382491 0.01822243 0.0
-0.06720209 0.01542161 0.0
-0.06989529 0.01231684 0.0
-0.07185592 0.00897548 0.0
-0.07304924 0.00546479 0.0
-0.07345422 0.00185176 0.0
-0.07306352 -0.00179676 0.0
-0.07188351 -0.00541390 0.0
-0.06993431 -0.00893247 0.0
-0.06724993 -0.01228477 0.0
-0.06387840 -0.01540256 0.0
-0.05988187 -0.01821731 0.0
-0.05533655 -0.02066075 0.0
-0.05033254 -0.02266590 0.0
-0.04497321 -0.02416857 0.0
-0.03937428 -0.02510947 0.0
-0.03366236 -0.02543691 0.0
-0.02797282 -0.02511021 0.0
-0.02244719 -0.02410390 0.0
-0.01722984 -0.02241263 0.0
-0.01246433 -0.02005704 0.0
-0.00828963 -0.01709050 0.0
-0.00483688 -0.01360668 0.0
-0.00222748 -0.00974779 0.0
-0.00057390 -0.00571288 0.0
0.00000000 -0.00246790 0.0
-0.00067515 0.00246734 0.0
-0.00260370 0.00766233 0.0
-0.00562488 0.01279201 0.0
-0.00959267 0.01759281 0.0
-0.01435575 0.02186253 0.0
-0.01975717 0.02545564 0.0
-0.02563611 0.02827672 0.0
-0.03183059 0.03027315 0.0
-0.03818082 0.03142790 0.0
-0.04453237 0.03175260 0.0
-0.05073906 0.03128138 0.0
-0.05666532 0.03006542 0.0
-0.06218797 0.02816821 0.0
-0.06719741 0.02566176 0.0
-0.07159841 0.02262343 0.0
-0.07531045 0.01913365 0.0
-0.07826781 0.01527420 0.0
-0.08041950 0.01112717 0.0
-0.08172907 0.00677437 0.0
-0.08217450 0.00229719 0.0
-0.08174804 -0.00222322 0.0
-0.08045624 -0.00670570 0.0
-0.07832004 -0.01106867 0.0
-0.07537493 -0.01522988 0.0
-0.07167121 -0.01910628 0.0
-0.06727419 -0.02261432 0.0
-0.06226433 -0.02567062 0.0
-0.05673711 -0.02819311 0.0
-0.05080274 -0.03010294 0.0
-0.04458530 -0.03132691 0.0
-0.03822147 -0.03180074 0.0
-0.03185864 -0.03147304 0.0
-0.02565248 -0.03031007 0.0
-0.01976389 -0.02830123 0.0
-0.01435565 -0.02546528 0.0
-0.00958904 -0.02185711 0.0
-0.00562088 -0.01757484 0.0
-0.00260175 -0.01276691 0.0
-0.00067628 -0.00763835 0.0
0.00000000 -0.00325892 0.0
-0.00077551 0.00325864 0.0
-0.00297527 0.00986209 0.0
-0.00640880 0.01622554 0.0
-0.01089858 0.02208259 0.0
-0.01626347 0.02722741 0.0
-0.02231944 0.03151161 0.0
-0.02888174 0.03483902 0.0
-0.03576774 0.03715915 0.0
-0.04280004 0.03846020 0.0
-0.04980949 0.03876204 0.0
-0.05663777 0.03810967 0.0
-0.06313950 0.03656715 0.0
-0.06918370 0.03421242 0.0
-0.07465475 0.03113280 0.0
-0.07945283 0.02742151 0.0
-0.08349407 0.02317488 0.0
-0.08671033 0.01849046 0.0
-0.08904894 0.01346578 0.0
-0.09047238 0.00819780 0.0
-0.09095793 0.00278274 0.0
-0.09049754 -0.00268360 0.0
-0.08909781 -0.00810543 0.0
-0.08678006 -0.01338642 0.0
-0.08358067 -0.01842927 0.0
-0.07955139 -0.02313555 0.0
-0.07475981 -0.02740591 0.0
-0.06928963 -0.03114079 0.0
-0.06324091 -0.03424183 0.0
-0.05672993 -0.03661392 0.0
-0.04988867 -0.03816817 0.0
-0.04286382 -0.03882558 0.0
-0.03581519 -0.03852167 0.0
-0.02891346 -0.03721180 0.0
-0.02233745 -0.03487724 0.0
-0.01627095 -0.03153178 0.0
-0.01089941 -0.02722865 0.0
-0.00640694 -0.02206731 0.0
-0.00297405 -0.01619981 0.0
-0.00077674 -0.00983566 0.0
0.00000000 -0.00415036 0.0
-0.00087653 0.00415040 0.0
-0.00335274 0.01233830 0.0
-0.00720881 0.02008161 0.0
-0.01223575 0.02710953 0.0
-0.01822154 0.03321320 0.0
-0.02495348 0.03824356 0.0
-0.03222111 0.04210665 0.0
-0.03981941 0.04475744 0.0
-0.04755201 0.04619279 0.0
-0.05523411 0.04644414 0.0
-0.06269482 0.04557038 0.0
-0.06977895 0.04365128 0.0
-0.07634811 0.04078158 0.0
-0.08228131 0.03706599 0.0
-0.08747499 0.03261519 0.0
-0.09184280 0.02754269 0.0
-0.09531508 0.02196273 0.0
-0.09783823 0.01598894 0.0
-0.09937421 0.00973378 0.0
-0.09990000 0.00330853 0.0
-0.09940734 -0.00317626 0.0
-0.09790268 -0.00961009 0.0
-0.09540736 -0.01588174 0.0
-0.09195796 -0.02187866 0.0
-0.08760693 -0.02748659 0.0
-0.08242316 -0.03258968 0.0
-0.07649273 -0.03707122 0.0
-0.06991937 -0.04081518 0.0
-0.06282478 -0.04370851 0.0
-0.05534848 -0.04564447 0.0
-0.04764719 -0.04652687 0.0
-0.03989359 -0.04627527 0.0
-0.03227440 -0.04483099 0.0
-0.02498779 -0.04216384 0.0
-0.01824034 -0.03827923 0.0
-0.01224360 -0.03322539 0.0
-0.00721063 -0.02710028 0.0
-0.00335295 -0.02005749 0.0
-0.00087805 -0.01231056 0.0
0.00000000 -0.00514606 0.0
-0.00098075 0.00514646 0.0
-0.00374433 0.01510187 0.0
-0.00804028 0.02437757 0.0
-0.01362696 0.03269620 0.0
-0.02025992 0.03984616 0.0
-0.02769588 0.04567952 0.0
-0.03569669 0.05010746 0.0
-0.04403320 0.05309395 0.0
-0.05248871 0.05464830 0.0
-0.06086187 0.05481729 0.0
-0.06896881 0.05367732 0.0
-0.07664459 0.05132706 0.0
-0.08374389 0.04788088 0.0
-0.09014107 0.04346317 0.0
-0.09572977 0.03820389 0.0
-0.10042215 0.03223508 0.0
-0.10414796 0.02568854 0.0
-0.10685354 0.01869452 0.0
-0.10850093 0.01138117 0.0
-0.10906720 0.00387479 0.0
-0.10854400 -0.00369946 0.0
-0.10693748 -0.01121661 0.0
-0.10426850 -0.01855072 0.0
-0.10057320 -0.02557396 0.0
-0.09590378 -0.03215601 0.0
-0.09032950 -0.03816396 0.0
-0.08393773 -0.04346299 0.0
-0.07683495 -0.04791797 0.0
-0.06914750 -0.05139596 0.0
-0.06102199 -0.05376998 0.0
-0.05262513 -0.05492372 0.0
-0.04414293 -0.05475747 0.0
-0.03577908 -0.05319484 0.0
-0.02775259 -0.05019033 0.0
-0.02029468 -0.04573714 0.0
-0.01364503 -0.03987503 0.0
-0.00804770 -0.03269760 0.0
-0.00374689 -0.02435831 0.0
-0.00098282 -0.01507462 0.0
0.00000000 -0.00625228 0.0
-0.00109052 0.00625307 0.0
-0.00415781 0.01816917 0.0
-0.00891789 0.02913764 0.0
-0.01509418 0.03887249 0.0
-0.02240742 0.04715939 0.0
-0.03058132 0.05385342 0.0
-0.03934788 0.05887401 0.0
-0.04845195 0.06219803 0.0
-0.05765517 0.06385152 0.0
-0.06673881 0.06390094 0.0
-0.07550582 0.06244433 0.0
-0.08378176 0.05960300 0.0
-0.09141504 0.05551415 0.0
-0.09827634 0.05032448 0.0
-0.10425765 0.04418520 0.0
-0.10927083 0.03724825 0.0
-0.11324615 0.02966386 0.0
-0.11613084 0.02157921 0.0
-0.11788780 0.01313813 0.0
-0.11849462 0.00448161 0.0
-0.11794299 -0.00425109 0.0
-0.11623856 -0.01292104 0.0
-0.11340123 -0.02138805 0.0
-0.10946586 -0.02950933 0.0
-0.10448341 -0.03713847 0.0
-0.09852228 -0.04412508 0.0
-0.09166994 -0.05031534 0.0
-0.08403440 -0.05555350 0.0
-0.07574569 -0.05968467 0.0
-0.06695682 -0.06255885 0.0
-0.05784423 -0.06403631 0.0
-0.04860752 -0.06399417 0.0
-0.03946826 -0.06233411 0.0
-0.03066771 -0.05899088 0.0
-0.02246369 -0.05394116 0.0
-0.01512635 -0.04721237 0.0
-0.00893326 -0.03889069 0.0
-0.00416384 -0.02912772 0.0
-0.00109344 -0.01814502 0.0
0.00000000 -0.00747743 0.0
-0.00120792 0.00747868 0.0
-0.00460035 0.02156159 0.0
-0.00985529 0.03439259 0.0
-0.01665779 0.04567498 0.0
-0.02469044 0.05519205 0.0
-0.03364101 0.06280399 0.0
-0.04320904 0.06844204 0.0
-0.05311146 0.07210044 0.0
-0.06308689 0.07382696 0.0
-0.07289868 0.07371272 0.0
-0.08233654 0.07188219 0.0
-0.09121718 0.06848364 0.0
-0.09938374 0.06368071 0.0
-0.10670457 0.05764532 0.0
-0.11307145 0.05055207 0.0
-0.11839741 0.04257422 0.0
-0.12261467 0.03388112 0.0
-0.12567250 0.02463704 0.0
-0.12753555 0.01500117 0.0
-0.12818246 0.00512853 0.0
-0.12760516 -0.00482839 0.0
-0.12580856 -0.01471764 0.0
-0.12281098 -0.02438563 0.0
-0.11864508 -0.03367523 0.0
-0.11335932 -0.04242423 0.0
-0.10701984 -0.05046456 0.0
-0.09971262 -0.05762257 0.0
-0.09154571 -0.06372041 0.0
-0.08265143 -0.06857894 0.0
-0.07318816 -0.07202213 0.0
-0.06334149 -0.07388298 0.0
-0.05332463 -0.07401102 0.0
-0.04337767 -0.07228108 0.0
-0.03376554 -0.06860300 0.0
-0.02477476 -0.06293195 0.0
-0.01670864 -0.05527848 0.0
-0.00988143 -0.04571790 0.0
-0.00461121 -0.03439794 0.0
-0.00121208 -0.02154415 0.0
0.00000000 -0.00883198 0.0
-0.00133488 0.00883373 0.0
-0.00507849 0.02530521 0.0
-0.01086495 0.04017904 0.0
-0.01833616 0.05314619 0.0
-0.02713233 0.06398822 0.0
-0.03690155 0.07257320 0.0
-0.04730798 0.07884847 0.0
-0.05803851 0.08283097 0.0
-0.06880756 0.08459600 0.0
-0.07936012 0.08426528 0.0
-0.08947318 0.08199525 0.0
-0.09895558 0.07796604 0.0
-0.10764673 0.07237186 0.0
-0.11541446 0.06541304 0.0
-0.12215223 0.05728984 0.0
-0.12777620 0.04819819 0.0
-0.13222218 0.03832711 0.0
-0.13544297 0.02785783 0.0
-0.13740601 0.01696421 0.0
-0.13809171 0.00581423 0.0
-0.13749239 -0.00542772 0.0
-0.13561199 -0.01659803 0.0
-0.13246656 -0.02753106 0.0
-0.12808541 -0.03805638 0.0
-0.12251301 -0.04799663 0.0
-0.11581143 -0.05716614 0.0
-0.10806322 -0.06537077 0.0
-0.09937450 -0.07240913 0.0
-0.08987801 -0.07807543 0.0
-0.07973591 -0.08216423 0.0
-0.06914190 -0.08447699 0.0
-0.05832239 -0.08483053 0.0
-0.04753640 -0.08306706 0.0
-0.03707386 -0.07906554 0.0
-0.02725219 -0.07275361 0.0
-0.01841103 -0.06411964 0.0
-0.01090515 -0.05322378 0.0
-0.00509580 -0.04020730 0.0
-0.00134073 -0.02529921 0.0
0.00000000 -0.01032822 0.0
-0.00147315 0.01033054 0.0
-0.00559828 0.02943033 0.0
-0.01195813 0.04653889 0.0
-0.02014550 0.06133356 0.0
-0.02975283 0.07359555 0.0
-0.04038407 0.08320443 0.0
-0.05166461 0.09012901 0.0
-0.06324906 0.09441542 0.0
-0.07482657 0.09617351 0.0
-0.08612386 0.09556257 0.0
-0.09690608 0.09277747 0.0
-0.10697589 0.08803584 0.0
-0.11617112 0.08156710 0.0
-0.12436149 0.07360341 0.0
-0.13144468 0.06437303 0.0
-0.13734230 0.05409580 0.0
-0.14199593 0.04298074 0.0
-0.14536361 0.03122552 0.0
-0.14741694 0.01901753 0.0
-0.14813884 0.00653613 0.0
-0.14752233 -0.00604423 0.0
-0.14557009 -0.01855027 0.0
-0.14229503 -0.03080612 0.0
-0.13772178 -0.04262963 0.0
-0.13188902 -0.05382939 0.0
-0.12485256 -0.06420260 0.0
-0.11668907 -0.07353427 0.0
-0.10750012 -0.08159808 0.0
-0.09741640 -0.08815916 0.0
-0.08660163 -0.09297900 0.0
-0.07525590 -0.09582272 0.0
-0.06361787 -0.09646856 0.0
-0.05196551 -0.09471943 0.0
-0.04061488 -0.09041617 0.0
-0.02991669 -0.08345180 0.0
-0.02025046 -0.07378587 0.0
-0.01201619 -0.06145805 0.0
-0.00562389 -0.04659960 0.0
-0.00148123 -0.02944187 0.0
0.00000000 -0.01198025 0.0
-0.00162437 0.01198322 0.0
-0.00616528 0.03397124 0.0
-0.01314502 0.05351863 0.0
-0.02209982 0.07028836 0.0
-0.03256781 0.08406354 0.0
-0.04410348 0.09474010 0.0
-0.05628963 0.10231516 0.0
-0.06874631 0.10687210 0.0
-0.08113662 0.10856382 0.0
-0.09316952 0.10759548 0.0
-0.10460000 0.10420795 0.0
-0.11522699 0.09866283 0.0
-0.12488970 0.09122981 0.0
-0.13346292 0.08217663 0.0
-0.14085171 0.07176183 0.0
-0.14698611 0.06023020 0.0
-0.15181605 0.04781068 0.0
-0.15530698 0.03471644 0.0
-0.15743614 0.02114670 0.0
-0.15818999 0.00728998 0.0
-0.15756254 -0.00667168 0.0
-0.15555489 -0.02055792 0.0
-0.15217587 -0.03418513 0.0
-0.14744384 -0.04736166 0.0
-0.14138952 -0.05988372 0.0
-0.13405980 -0.07153231 0.0
-0.12552243 -0.08207164 0.0
-0.11587118 -0.09124933 0.0
-0.10523137 -0.09879896 0.0
-0.09376525 -0.10444512 0.0
-0.08167674 -0.10791123 0.0
-0.06921507 -0.10893022 0.0
-0.05667663 -0.10725787 0.0
-0.04440445 -0.10268835 0.0
-0.03278498 -0.09507127 0.0
-0.02224164 -0.08432921 0.0
-0.01322523 -0.07047446 0.0
-0.00620133 -0.05362350 0.0
-0.00163528 -0.03400791 0.0
0.00000000 -0.01380389 0.0
-0.00179013 0.01380761 0.0
-0.00678481 0.03896591 0.0
-0.01443491 0.06116874 0.0
-0.02421102 0.08006448 0.0
-0.03558907 0.09544159 0.0
-0.04806790 0.10721893 0.0
-0.06118342 0.11543068 0.0
-0.07451886 0.12020755 0.0
-0.08771095 0.12175591 0.0
-0.10045221 0.12033674 0.0
-0.11249000 0.11624574 0.0
-0.12362299 0.10979581 0.0
-0.13369571 0.10130253 0.0
-0.14259210 0.09107302 0.0
-0.15022858 0.07939831 0.0
-0.15654721 0.06654883 0.0
-0.16150939 0.05277287 0.0
-0.16509044 0.03829749 0.0
-0.16727513 0.02333139 0.0
-0.16805454 0.00806939 0.0
-0.16742407 -0.00730214 0.0
-0.16538290 -0.02259910 0.0
-0.16193468 -0.03763335 0.0
-0.15708967 -0.05220666 0.0
-0.15086813 -0.06610525 0.0
-0.14330490 -0.07909555 0.0
-0.13445508 -0.09092146 0.0
-0.12440057 -0.10130384 0.0
-0.11325711 -0.10994242 0.0
-0.10118138 -0.11652085 0.0
-0.08837758 -0.12071502 0.0
-0.07510285 -0.12220495 0.0
-0.06167064 -0.12069008 0.0
-0.04845137 -0.11590762 0.0
-0.03586958 -0.10765306 0.0
-0.02439709 -0.09580170 0.0
-0.01454200 -0.08032955 0.0
-0.00683369 -0.06133180 0.0
-0.00180458 -0.03903702 0.0
0.00000000 -0.01581679 0.0
-0.00197206 0.01582137 0.0
-0.00746211 0.04445596 0.0
-0.01583649 0.06954311 0.0
-0.02648912 0.09071711 0.0
-0.03882431 0.10777678 0.0
-0.05227801 0.12067262 0.0