# vtk DataFile Version 4.0
2D velocity field
ASCII
DATASET STRUCTURED_GRID
DIMENSIONS 40 40 1
POINTS 1600 float
0.00000000 0.00000000 1.0
1.00000000 0.00000000 1.0
2.00000000 0.00000000 1.0
3.00000000 0.00000000 1.0
4.00000000 0.00000000 1.0
5.00000000 0.00000000 1.0
6.00000000 0.00000000 1.0
7.00000000 0.00000000 1.0
8.00000000 0.00000000 1.0
9.00000000 0.00000000 1.0
10.00000000 0.00000000 1.0
11.00000000 0.00000000 1.0
12.00000000 0.00000000 1.0
13.00000000 0.00000000 1.0
14.00000000 0.00000000 1.0
15.00000000 0.00000000 1.0
16.00000000 0.00000000 1.0
17.00000000 0.00000000 1.0
18.00000000 0.00000000 1.0
19.00000000 0.00000000 1.0
20.00000000 0.00000000 1.0
21.00000000 0.00000000 1.0
22.00000000 0.00000000 1.0
23.00000000 0.00000000 1.0
24.00000000 0.00000000 1.0
25.00000000 0.00000000 1.0
26.00000000 0.00000000 1.0
27.00000000 0.00000000 1.0
28.00000000 0.00000000 1.0
29.00000000 0.00000000 1.0
30.00000000 0.00000000 1.0
31.00000000 0.00000000 1.0
32.00000000 0.00000000 1.0
33.00000000 0.00000000 1.0
34.00000000 0.00000000 1.0
35.00000000 0.00000000 1.0
36.00000000 0.00000000 1.0
37.00000000 0.00000000 1.0
38.00000000 0.00000000 1.0
39.00000000 0.00000000 1.0
0.00000000 1.00000000 1.0
1.00000000 1.00000000 1.0
2.00000000 1.00000000 1.0
3.00000000 1.00000000 1.0
4.00000000 1.00000000 1.0
5.00000000 1.00000000 1.0
6.00000000 1.00000000 1.0
7.00000000 1.00000000 1.0
8.00000000 1.00000000 1.0
9.00000000 1.00000000 1.0
10.00000000 1.00000000 1.0
11.00000000 1.00000000 1.0
12.00000000 1.00000000 1.0
13.00000000 1.00000000 1.0
14.00000000 1.00000000 1.0
15.00000000 1.00000000 1.0
16.00000000 1.00000000 1.0
17.00000000 1.00000000 1.0
18.00000000 1.00000000 1.0
19.00000000 1.00000000 1.0
20.00000000 1.00000000 1.0
21.00000000 1.00000000 1.0
22.00000000 1.00000000 1.0
23.00000000 1.00000000 1.0
24.00000000 1.00000000 1.0
25.00000000 1.00000000 1.0
26.00000000 1.00000000 1.0
27.00000000 1.00000000 1.0
28.00000000 1.00000000 1.0
29.00000000 1.00000000 1.0
30.00000000 1.00000000 1.0
31.00000000 1.00000000 1.0
32.00000000 1.00000000 1.0
33.00000000 1.00000000 1.0
34.00000000 1.00000000 1.0
35.00000000 1.00000000 1.0
36.00000000 1.00000000 1.0
37.00000000 1.00000000 1.0
38.00000000 1.00000000 1.0
39.00000000 1.00000000 1.0
0.00000000 2.00000000 1.0
1.00000000 2.00000000 1.0
2.00000000 2.00000000 1.0
3.00000000 2.00000000 1.0
4.00000000 2.00000000 1.0
5.00000000 2.00000000 1.0
6.00000000 2.00000000 1.0
7.00000000 2.00000000 1.0
8.00000000 2.00000000 1.0
9.00000000 2.00000000 1.0
10.00000000 2.00000000 1.0
11.00000000 2.00000000 1.0
12.00000000 2.00000000 1.0
13.00000000 2.00000000 1.0
14.00000000 2.00000000 1.0
15.00000000 2.00000000 1.0
16.00000000 2.00000000 1.0
17.00000000 2.00000000 1.0
18.00000000 2.00000000 1.0
19.00000000 2.00000000 1.0
20.00000000 2.00000000 1.0
21.00000000 2.00000000 1.0
22.00000000 2.00000000 1.0
23.00000000 2.00000000 1.0
24.00000000 2.00000000 1.0
25.00000000 2.00000000 1.0
26.00000000 2.00000000 1.0
27.00000000 2.00000000 1.0
28.00000000 2.00000000 1.0
29.00000000 2.00000000 1.0
30.00000000 2.00000000 1.0
31.00000000 2.00000000 1.0
32.00000000 2.00000000 1.0
33.00000000 2.00000000 1.0
34.00000000 2.00000000 1.0
35.00000000 2.00000000 1.0
36.00000000 2.00000000 1.0
37.00000000 2.00000000 1.0
38.00000000 2.00000000 1.0
39.00000000 2.00000000 1.0
0.00000000 3.00000000 1.0
1.00000000 3.00000000 1.0
2.00000000 3.00000000 1.0
3.00000000 3.00000000 1.0
4.00000000 3.00000000 1.0
5.00000000 3.00000000 1.0
6.00000000 3.00000000 1.0
7.00000000 3.00000000 1.0
8.00000000 3.00000000 1.0
9.00000000 3.00000000 1.0
10.00000000 3.00000000 1.0
11.00000000 3.00000000 1.0
12.00000000 3.00000000 1.0
13.00000000 3.00000000 1.0
14.00000000 3.00000000 1.0
15.00000000 3.00000000 1.0
16.00000000 3.00000000 1.0
17.00000000 3.00000000 1.0
18.00000000 3.00000000 1.0
19.00000000 3.00000000 1.0
20.00000000 3.00000000 1.0
21.00000000 3.00000000 1.0
22.00000000 3.00000000 1.0
23.00000000 3.00000000 1.0
24.00000000 3.00000000 1.0
25.00000000 3.00000000 1.0
26.00000000 3.00000000 1.0
27.00000000 3.00000000 1.0
28.00000000 3.00000000 1.0
29.00000000 3.00000000 1.0
30.00000000 3.00000000 1.0
31.00000000 3.00000000 1.0
32.00000000 3.00000000 1.0
33.00000000 3.00000000 1.0
34.00000000 3.00000000 1.0
35.00000000 3.00000000 1.0
36.00000000 3.00000000 1.0
37.00000000 3.00000000 1.0
38.00000000 3.00000000 1.0
39.00000000 3.00000000 1.0
0.00000000 4.00000000 1.0
1.00000000 4.00000000 1.0
2.00000000 4.00000000 1.0
3.00000000 4.00000000 1.0
4.00000000 4.00000000 1.0
5.00000000 4.00000000 1.0
6.00000000 4.00000000 1.0
7.00000000 4.00000000 1.0
8.00000000 4.00000000 1.0
9.00000000 4.00000000 1.0
10.00000000 4.00000000 1.0
11.00000000 4.00000000 1.0
12.00000000 4.00000000 1.0
13.00000000 4.00000000 1.0
14.00000000 4.00000000 1.0
15.00000000 4.00000000 1.0
16.00000000 4.00000000 1.0
17.00000000 4.00000000 1.0
18.00000000 4.00000000 1.0
19.00000000 4.00000000 1.0
20.00000000 4.00000000 1.0
21.00000000 4.00000000 1.0
22.00000000 4.00000000 1.0
23.00000000 4.00000000 1.0
24.00000000 4.00000000 1.0
25.00000000 4.00000000 1.0
26.00000000 4.00000000 1.0
27.00000000 4.00000000 1.0
28.00000000 4.00000000 1.0
29.00000000 4.00000000 1.0
30.00000000 4.00000000 1.0
31.00000000 4.00000000 1.0
32.00000000 4.00000000 1.0
33.00000000 4.00000000 1.0
34.00000000 4.00000000 1.0
35.00000000 4.00000000 1.0
36.00000000 4.00000000 1.0
37.00000000 4.00000000 1.0
38.00000000 4.00000000 1.0
39.00000000 4.00000000 1.0
0.00000000 5.00000000 1.0
1.00000000 5.00000000 1.0
2.00000000 5.00000000 1.0
3.00000000 5.00000000 1.0
4.00000000 5.00000000 1.0
5.00000000 5.00000000 1.0
6.00000000 5.00000000 1.0
7.00000000 5.00000000 1.0
8.00000000 5.00000000 1.0
9.00000000 5.00000000 1.0
10.00000000 5.00000000 1.0
11.00000000 5.00000000 1.0
12.00000000 5.00000000 1.0
13.00000000 5.00000000 1.0
14.00000000 5.00000000 1.0
15.00000000 5.00000000 1.0
16.00000000 5.00000000 1.0
17.00000000 5.00000000 1.0
18.00000000 5.00000000 1.0
19.00000000 5.00000000 1.0
20.00000000 5.00000000 1.0
21.00000000 5.00000000 1.0
22.00000000 5.00000000 1.0
23.00000000 5.00000000 1.0
24.00000000 5.00000000 1.0
25.00000000 5.00000000 1.0
26.00000000 5.00000000 1.0
27.00000000 5.00000000 1.0
28.00000000 5.00000000 1.0
29.00000000 5.00000000 1.0
30.00000000 5.00000000 1.0
31.00000000 5.00000000 1.0
32.00000000 5.00000000 1.0
33.00000000 5.00000000 1.0
34.00000000 5.00000000 1.0
35.00000000 5.00000000 1.0
36.00000000 5.00000000 1.0
37.00000000 5.00000000 1.0
38.00000000 5.00000000 1.0
39.00000000 5.00000000 1.0
0.00000000 6.00000000 1.0
1.00000000 6.00000000 1.0
2.00000000 6.00000000 1.0
3.00000000 6.00000000 1.0
4.00000000 6.00000000 1.0
5.00000000 6.00000000 1.0
6.00000000 6.00000000 1.0
7.00000000 6.00000000 1.0
8.00000000 6.00000000 1.0
9.00000000 6.00000000 1.0
10.00000000 6.00000000 1.0
11.00000000 6.00000000 1.0
12.00000000 6.00000000 1.0
13.00000000 6.00000000 1.0
14.00000000 6.00000000 1.0
15.00000000 6.00000000 1.0
16.00000000 6.00000000 1.0
17.00000000 6.00000000 1.0
18.00000000 6.00000000 1.0
19.00000000 6.00000000 1.0
20.00000000 6.00000000 1.0
21.00000000 6.00000000 1.0
22.00000000 6.00000000 1.0
23.00000000 6.00000000 1.0
24.00000000 6.00000000 1.0
25.00000000 6.00000000 1.0
26.00000000 6.00000000 1.0
27.00000000 6.00000000 1.0
28.00000000 6.00000000 1.0
29.00000000 6.00000000 1.0
30.00000000 6.00000000 1.0
31.00000000 6.00000000 1.0
32.00000000 6.00000000 1.0
33.00000000 6.00000000 1.0
34.00000000 6.00000000 1.0
35.00000000 6.00000000 1.0
36.00000000 6.00000000 1.0
37.00000000 6.00000000 1.0
38.00000000 6.00000000 1.0
39.00000000 6.00000000 1.0
0.00000000 7.00000000 1.0
1.00000000 7.00000000 1.0
2.00000000 7.00000000 1.0
3.00000000 7.00000000 1.0
4.00000000 7.00000000 1.0
5.00000000 7.00000000 1.0
6.00000000 7.00000000 1.0
7.00000000 7.00000000 1.0
8.00000000 7.00000000 1.0
9.00000000 7.00000000 1.0
10.00000000 7.00000000 1.0
11.00000000 7.00000000 1.0
12.00000000 7.00000000 1.0
13.00000000 7.00000000 1.0
14.00000000 7.00000000 1.0
15.00000000 7.00000000 1.0
16.00000000 7.00000000 1.0
17.00000000 7.00000000 1.0
18.00000000 7.00000000 1.0
19.00000000 7.00000000 1.0
20.00000000 7.00000000 1.0
21.00000000 7.00000000 1.0
22.00000000 7.00000000 1.0
23.00000000 7.00000000 1.0
24.00000000 7.00000000 1.0
25.00000000 7.00000000 1.0
26.00000000 7.00000000 1.0
27.00000000 7.00000000 1.0
28.00000000 7.00000000 1.0
29.00000000 7.00000000 1.0
30.00000000 7.00000000 1.0
31.00000000 7.00000000 1.0
32.00000000 7.00000000 1.0
33.00000000 7.00000000 1.0
34.00000000 7.00000000 1.0
35.00000000 7.00000000 1.0
36.00000000 7.00000000 1.0
37.00000000 7.00000000 1.0
38.00000000 7.00000000 1.0
39.00000000 7.00000000 1.0
0.00000000 8.00000000 1.0
1.00000000 8.00000000 1.0
2.00000000 8.00000000 1.0
3.00000000 8.00000000 1.0
4.00000000 8.00000000 1.0
5.00000000 8.00000000 1.0
6.00000000 8.00000000 1.0
7.00000000 8.00000000 1.0
8.00000000 8.00000000 1.0
9.00000000 8.00000000 1.0
10.00000000 8.00000000 1.0
11.00000000 8.00000000 1.0
12.00000000 8.00000000 1.0
13.00000000 8.00000000 1.0
14.00000000 8.00000000 1.0
15.00000000 8.00000000 1.0
16.00000000 8.00000000 1.0
17.00000000 8.00000000 1.0
18.00000000 8.00000000 1.0
19.00000000 8.00000000 1.0
20.00000000 8.00000000 1.0
21.00000000 8.00000000 1.0
22.00000000 8.00000000 1.0
23.00000000 8.00000000 1.0
24.00000000 8.00000000 1.0
25.00000000 8.00000000 1.0
26.00000000 8.00000000 1.0
27.00000000 8.00000000 1.0
28.00000000 8.00000000 1.0
29.00000000 8.00000000 1.0
30.00000000 8.00000000 1.0
31.00000000 8.00000000 1.0
32.00000000 8.00000000 1.0
33.00000000 8.00000000 1.0
34.00000000 8.00000000 1.0
35.00000000 8.00000000 1.0
36.00000000 8.00000000 1.0
37.00000000 8.00000000 1.0
38.00000000 8.00000000 1.0
39.00000000 8.00000000 1.0
0.00000000 9.00000000 1.0
1.00000000 9.00000000 1.0
2.00000000 9.00000000 1.0
3.00000000 9.00000000 1.0
4.00000000 9.00000000 1.0
5.00000000 9.00000000 1.0
6.00000000 9.00000000 1.0
7.00000000 9.00000000 1.0
8.00000000 9.00000000 1.0
[...]
POINT_DATA 1600
VECTORS velocity double
0.00000000 -0.00007275 0.0
0.00000051 0.00007277 0.0
0.00000024 0.00017347 0.0
-0.00000001 0.00023057 0.0
-0.00000028 0.00025510 0.0
-0.00000054 0.00026036 0.0
-0.00000081 0.00025598 0.0
-0.00000104 0.00024718 0.0
-0.00000127 0.00023611 0.0
-0.00000148 0.00022349 0.0
-0.00000169 0.00020945 0.0
-0.00000186 0.00019408 0.0
-0.00000204 0.00017740 0.0
-0.00000218 0.00015954 0.0
-0.00000233 0.00014056 0.0
-0.00000243 0.00012065 0.0
-0.00000254 0.00009990 0.0
-0.00000260 0.00007849 0.0
-0.00000266 0.00005654 0.0
-0.00000268 0.00003424 0.0
-0.00000271 0.00001168 0.0
-0.00000268 -0.00001093 0.0
-0.00000267 -0.00003349 0.0
-0.00000260 -0.00005580 0.0
-0.00000254 -0.00007776 0.0
-0.00000243 -0.00009917 0.0
-0.00000233 -0.00011993 0.0
-0.00000218 -0.00013986 0.0
-0.00000204 -0.00015885 0.0
-0.00000186 -0.00017673 0.0
-0.00000169 -0.00019342 0.0
-0.00000148 -0.00020880 0.0
-0.00000127 -0.00022285 0.0
-0.00000104 -0.00023549 0.0
-0.00000081 -0.00024656 0.0
-0.00000055 -0.00025537 0.0
-0.00000029 -0.00025974 0.0
-0.00000001 -0.00025445 0.0
0.00000024 -0.00022987 0.0
0.00000050 -0.00017272 0.0
0.00000000 -0.00022923 0.0
0.00001880 0.00022916 0.0
-0.00035369 0.00060528 0.0
-0.00089716 0.00083385 0.0
-0.00152215 0.00093990 0.0
-0.00217162 0.00096906 0.0
-0.00281518 0.00095769 0.0
-0.00343814 0.00092668 0.0
-0.00403315 0.00088559 0.0
-0.00459567 0.00083792 0.0
-0.00512205 0.00078482 0.0
-0.00560903 0.00072666 0.0
-0.00605348 0.00066375 0.0
-0.00645258 0.00059645 0.0
-0.00680375 0.00052520 0.0
-0.00710475 0.00045047 0.0
-0.00735366 0.00037278 0.0
-0.00754893 0.00029266 0.0
-0.00768930 0.00021064 0.0
-0.00777394 0.00012726 0.0
-0.00780228 0.00004307 0.0
-0.00777418 -0.00004140 0.0
-0.00768979 -0.00012560 0.0
-0.00754964 -0.00020900 0.0
-0.00735459 -0.00029104 0.0
-0.00710586 -0.00037120 0.0
-0.00680502 -0.00044892 0.0
-0.00645399 -0.00052370 0.0
-0.00605499 -0.00059500 0.0
-0.00561060 -0.00066235 0.0
-0.00512367 -0.00072531 0.0
-0.00459728 -0.00078352 0.0
-0.00403474 -0.00083667 0.0
-0.00343968 -0.00088437 0.0
-0.00281665 -0.00092549 0.0
-0.00217303 -0.00095650 0.0
-0.00152351 -0.00096785 0.0
-0.00089851 -0.00093861 0.0
-0.00035508 -0.00083248 0.0
0.00001736 -0.00060386 0.0
0.00000000 -0.00045901 0.0
-0.00011319 0.00045897 0.0
-0.00073100 0.00122299 0.0
-0.00159831 0.00170107 0.0
-0.00259227 0.00193375 0.0
-0.00362982 0.00200653 0.0
-0.00466330 0.00199108 0.0
-0.00566750 0.00193080 0.0
-0.00662877 0.00184677 0.0
-0.00753852 0.00174761 0.0
-0.00839024 0.00163645 0.0
-0.00917823 0.00151459 0.0
-0.00989740 0.00138285 0.0
-0.01054308 0.00124209 0.0
-0.01111116 0.00109322 0.0
-0.01159800 0.00093728 0.0
-0.01200056 0.00077530 0.0
-0.01231629 0.00060838 0.0
-0.01254327 0.00043760 0.0
-0.01268008 0.00026407 0.0
-0.01272590 0.00008888 0.0
-0.01268043 -0.00008686 0.0
-0.01254396 -0.00026207 0.0
-0.01231730 -0.00043563 0.0
-0.01200187 -0.00060646 0.0
-0.01159958 -0.00077344 0.0
-0.01111298 -0.00093550 0.0
-0.01054509 -0.00109153 0.0
-0.00989956 -0.00124049 0.0
-0.00918049 -0.00138135 0.0
-0.00839256 -0.00151318 0.0
-0.00754086 -0.00163514 0.0
-0.00663108 -0.00174638 0.0
-0.00566974 -0.00184561 0.0
-0.00466546 -0.00192969 0.0
-0.00363188 -0.00198998 0.0
-0.00259423 -0.00200541 0.0
-0.00160018 -0.00193256 0.0
-0.00073277 -0.00169980 0.0
-0.00011477 -0.00122175 0.0
0.00000000 -0.00078727 0.0
-0.00021211 0.00078761 0.0
-0.00099419 0.00200498 0.0
-0.00205552 0.00276229 0.0
-0.00325963 0.00313777 0.0
-0.00451506 0.00326187 0.0
-0.00576763 0.00324356 0.0
-0.00698715 0.00315023 0.0
-0.00815629 0.00301583 0.0
-0.00926377 0.00285501 0.0
-0.01030104 0.00267365 0.0
-0.01126086 0.00247435 0.0
-0.01213683 0.00225877 0.0
-0.01292324 0.00202844 0.0
-0.01361503 0.00178498 0.0
-0.01420783 0.00153003 0.0
-0.01469792 0.00126536 0.0
-0.01508229 0.00099271 0.0
-0.01535856 0.00071386 0.0
-0.01552508 0.00043057 0.0
-0.01558082 0.00014463 0.0
-0.01552547 -0.00014222 0.0
-0.01535933 -0.00042819 0.0
-0.01508342 -0.00071153 0.0
-0.01469939 -0.00099045 0.0
-0.01420961 -0.00126320 0.0
-0.01361707 -0.00152799 0.0
-0.01292550 -0.00178306 0.0
-0.01213926 -0.00202667 0.0
-0.01126341 -0.00225714 0.0
-0.01030365 -0.00247287 0.0
-0.00926640 -0.00267232 0.0
-0.00815889 -0.00285381 0.0
-0.00698969 -0.00301474 0.0
-0.00577006 -0.00314923 0.0
-0.00451736 -0.00324260 0.0
-0.00326177 -0.00326089 0.0
-0.00205749 -0.00313675 0.0
-0.00099596 -0.00276123 0.0
-0.00021361 -0.00200401 0.0
0.00000000 -0.00117060 0.0
-0.00026659 0.00117140 0.0
-0.00115006 0.00288835 0.0
-0.00232798 0.00394012 0.0
-0.00365316 0.00446284 0.0
-0.00503066 0.00463928 0.0
-0.00640456 0.00461737 0.0
-0.00774304 0.00448863 0.0
-0.00902715 0.00429986 0.0
-0.01024419 0.00407197 0.0
-0.01138439 0.00381378 0.0
-0.01243955 0.00352944 0.0
-0.01340249 0.00322165 0.0
-0.01426687 0.00289278 0.0
-0.01502715 0.00254519 0.0
-0.01567851 0.00218136 0.0
-0.01621694 0.00180375 0.0
-0.01663914 0.00141489 0.0
-0.01694259 0.00101728 0.0
-0.01712546 0.00061343 0.0
-0.01718668 0.00020583 0.0
-0.01712587 -0.00020301 0.0
-0.01694341 -0.00061065 0.0
-0.01664035 -0.00101456 0.0
-0.01621850 -0.00141228 0.0
-0.01568039 -0.00180127 0.0
-0.01502931 -0.00217904 0.0
-0.01426927 -0.00254304 0.0
-0.01340507 -0.00289082 0.0
-0.01244225 -0.00321989 0.0
-0.01138716 -0.00352789 0.0
-0.01024698 -0.00381243 0.0
-0.00902991 -0.00407080 0.0
-0.00774571 -0.00429885 0.0
-0.00640710 -0.00448775 0.0
-0.00503303 -0.00461657 0.0
-0.00365533 -0.00463850 0.0
-0.00232994 -0.00446204 0.0
-0.00115176 -0.00393930 0.0
-0.00026803 -0.00288764 0.0
0.00000000 -0.00158399 0.0
-0.00029508 0.00158530 0.0
-0.00124251 0.00383568 0.0
-0.00249666 0.00519417 0.0
-0.00390031 0.00586639 0.0
-0.00535528 0.00609415 0.0
-0.00680478 0.00606678 0.0
-0.00821655 0.00590030 0.0
-0.00957108 0.00565430 0.0
-0.01085498 0.00535579 0.0
-0.01205785 0.00501658 0.0
-0.01317092 0.00464244 0.0
-0.01418654 0.00423721 0.0
-0.01509803 0.00380419 0.0
-0.01589952 0.00334665 0.0
-0.01658605 0.00286784 0.0
-0.01715341 0.00237109 0.0
-0.01759822 0.00185967 0.0
-0.01791786 0.00133691 0.0
-0.01811048 0.00080603 0.0
-0.01817495 0.00027031 0.0
-0.01811092 -0.00026705 0.0
-0.01791873 -0.00080282 0.0
-0.01759951 -0.00133378 0.0
-0.01715508 -0.00185668 0.0
-0.01658806 -0.00236826 0.0
-0.01590183 -0.00286521 0.0
-0.01510058 -0.00334425 0.0
-0.01418929 -0.00380205 0.0
-0.01317380 -0.00423533 0.0
-0.01206079 -0.00464082 0.0
-0.01085793 -0.00501522 0.0
-0.00957397 -0.00535468 0.0
-0.00821934 -0.00565340 0.0
-0.00680741 -0.00589958 0.0
-0.00535771 -0.00606618 0.0
-0.00390250 -0.00609361 0.0
-0.00249858 -0.00586586 0.0
-0.00124415 -0.00519363 0.0
-0.00029648 -0.00383521 0.0
0.00000000 -0.00201762 0.0
-0.00031272 0.00201945 0.0
-0.00130810 0.00483095 0.0
-0.00262279 0.00650875 0.0
-0.00409025 0.00733375 0.0
-0.00560823 0.00761203 0.0
-0.00711858 0.00757702 0.0
-0.00858857 0.00737021 0.0
-0.00999841 0.00706404 0.0
-0.01133435 0.00669166 0.0
-0.01258564 0.00626778 0.0
-0.01374314 0.00579988 0.0
-0.01479896 0.00529295 0.0
-0.01574615 0.00475133 0.0
-0.01657875 0.00417919 0.0
-0.01729166 0.00358071 0.0
-0.01788064 0.00296003 0.0
-0.01834227 0.00232128 0.0
-0.01867394 0.00166855 0.0
-0.01887377 0.00100586 0.0
-0.01894067 0.00033720 0.0
-0.01887425 -0.00033346 0.0
-0.01867489 -0.00100217 0.0
-0.01834367 -0.00166497 0.0
-0.01788246 -0.00231787 0.0
-0.01729384 -0.00295682 0.0
-0.01658126 -0.00357776 0.0
-0.01574892 -0.00417653 0.0
-0.01480193 -0.00474898 0.0
-0.01374625 -0.00529093 0.0
-0.01258881 -0.00579820 0.0
-0.01133752 -0.00626643 0.0
-0.01000150 -0.00669062 0.0
-0.00859153 -0.00706328 0.0
-0.00712134 -0.00736968 0.0
-0.00561074 -0.00757667 0.0
-0.00409248 -0.00761178 0.0
-0.00262471 -0.00733352 0.0
-0.00130973 -0.00650850 0.0
-0.00031411 -0.00483072 0.0
0.00000000 -0.00246982 0.0
-0.00032765 0.00247217 0.0
-0.00136814 0.00587133 0.0
-0.00274189 0.00788239 0.0
-0.00427336 0.00886511 0.0
-0.00585538 0.00919395 0.0
-0.00742764 0.00914918 0.0
-0.00895654 0.00889901 0.0
-0.01042184 0.00852926 0.0
-0.01180953 0.00807925 0.0
-0.01310853 0.00756671 0.0
-0.01430953 0.00700079 0.0
-0.01540438 0.00638775 0.0
-0.01638607 0.00573295 0.0
-0.01724852 0.00504160 0.0
-0.01798664 0.00431877 0.0
-0.01859617 0.00356953 0.0
-0.01907375 0.00279882 0.0
-0.01941676 0.00201155 0.0
-0.01962341 0.00121249 0.0
-0.01969259 0.00040638 0.0
-0.01962395 -0.00040210 0.0
-0.01941782 -0.00120827 0.0
-0.01907530 -0.00200747 0.0
-0.01859819 -0.00279495 0.0
-0.01798907 -0.00356591 0.0
-0.01725131 -0.00431547 0.0
-0.01638914 -0.00503865 0.0
-0.01540767 -0.00573039 0.0
-0.01431296 -0.00638559 0.0
-0.01311202 -0.00699905 0.0
-0.01181299 -0.00756538 0.0
-0.01042521 -0.00807831 0.0
-0.00895973 -0.00852867 0.0
-0.00743059 -0.00889872 0.0
-0.00585804 -0.00914912 0.0
-0.00427567 -0.00919403 0.0
-0.00274386 -0.00886523 0.0
-0.00136978 -0.00788247 0.0
-0.00032904 -0.00587134 0.0
0.00000000 -0.00294248 0.0
-0.00034344 0.00294537 0.0
-0.00143294 0.00696071 0.0
-0.00287161 0.00932095 0.0
-0.00447450 0.01046788 0.0
-0.00612877 0.01084812 0.0
-0.00777119 0.01079150 0.0
-0.00936680 0.01049452 0.0
-0.01089469 0.01005705 0.0
-0.01234043 0.00952490 0.0
-0.01369268 0.00891888 0.0
-0.01494188 0.00824993 0.0
-0.01607981 0.00752559 0.0
-0.01709933 0.00675242 0.0
-0.01799439 0.00593660 0.0
-0.01875990 0.00508424 0.0
-0.01939170 0.00420129 0.0
-0.01988648 0.00329358 0.0
-0.02024174 0.00236678 0.0
-0.02045570 0.00142645 0.0
-0.02052735 0.00047801 0.0
-0.02045631 -0.00047313 0.0
-0.02024293 -0.00142164 0.0
-0.01988823 -0.00236214 0.0
-0.01939397 -0.00328919 0.0
-0.01876263 -0.00419721 0.0
-0.01799752 -0.00508054 0.0
-0.01710278 -0.00593332 0.0
-0.01608350 -0.00674961 0.0
-0.01494572 -0.00752328 0.0
-0.01369657 -0.00824813 0.0
-0.01234428 -0.00891758 0.0
-0.01089842 -0.00952409 0.0
-0.00937031 -0.01005668 0.0
-0.00777441 -0.01049453 0.0
-0.00613162 -0.01079180 0.0
-0.00447695 -0.01084859 0.0
-0.00287366 -0.01046840 0.0
-0.00143462 -0.00932140 0.0
-0.00034484 -0.00696101 0.0
0.00000000 -0.00343896 0.0
-0.00036150 0.00344243 0.0
-0.00150715 0.00810624 0.0
-0.00302025 0.01083393 0.0
-0.00470545 0.01215296 0.0
-0.00644345 0.01258600 0.0
-0.00816744 0.01251538 0.0
-0.00984063 0.01216760 0.0
-0.01144114 0.01165746 0.0
-0.01295401 0.01103767 0.0
-0.01436756 0.01033235 0.0
-0.01567205 0.00955433 0.0
-0.01685911 0.00871259 0.0
-0.01792162 0.00781485 0.0
-0.01885356 0.00686848 0.0
-0.01964995 0.00588058 0.0
-0.02030675 0.00485806 0.0
-0.02082081 0.00380760 0.0
-0.02118973 0.00273568 0.0
-0.02141188 0.00164857 0.0
-0.02148626 0.00055240 0.0
-0.02141256 -0.00054683 0.0
-0.02119109 -0.00164310 0.0
-0.02082280 -0.00273041 0.0
-0.02030933 -0.00380262 0.0
-0.01965305 -0.00485345 0.0
-0.01885711 -0.00587642 0.0
-0.01792554 -0.00686484 0.0
-0.01686329 -0.00781178 0.0
-0.01567640 -0.00871011 0.0
-0.01437196 -0.00955247 0.0
-0.01295835 -0.01033111 0.0
-0.01144531 -0.01103702 0.0
-0.00984453 -0.01165736 0.0
-0.00817099 -0.01216796 0.0
-0.00644657 -0.01251611 0.0
-0.00470810 -0.01258695 0.0
-0.00302242 -0.01215396 0.0
-0.00150889 -0.01083481 0.0
-0.00036291 -0.00810686 0.0
0.00000000 -0.00396330 0.0
-0.00038245 0.00396737 0.0
-0.00159310 0.00931676 0.0
-0.00319217 0.01243288 0.0
-0.00497255 0.01393321 0.0
-0.00680752 0.01442086 0.0
-0.00862607 0.01433381 0.0
-0.01038913 0.01393055 0.0
-0.01207363 0.01334184 0.0
-0.01366388 0.01262784 0.0
-0.01514785 0.01181622 0.0
-0.01651554 0.01092194 0.0
-0.01775854 0.00995551 0.0
-0.01886976 0.00892601 0.0
-0.01984331 0.00784197 0.0
-0.02067440 0.00671162 0.0
-0.02135921 0.00554282 0.0
-0.02189477 0.00434314 0.0
-0.02227893 0.00311981 0.0
-0.02251016 0.00187979 0.0
-0.02258760 0.00062983 0.0
-0.02251094 -0.00062347 0.0
-0.02228048 -0.00187355 0.0
-0.02189705 -0.00311380 0.0
-0.02136216 -0.00433748 0.0
-0.02067795 -0.00553761 0.0
-0.01984738 -0.00670695 0.0
-0.01887424 -0.00783792 0.0
-0.01776332 -0.00892263 0.0
-0.01652050 -0.00995285 0.0
-0.01515286 -0.01092003 0.0
-0.01366882 -0.01181505 0.0
-0.01207835 -0.01262739 0.0
-0.01039354 -0.01334206 0.0
-0.00863005 -0.01393134 0.0
-0.00681098 -0.01433505 0.0
-0.00497545 -0.01442237 0.0
-0.00319450 -0.01393478 0.0
-0.00159492 -0.01243426 0.0
-0.00038389 -0.00931776 0.0
0.00000000 -0.00451997 0.0
-0.00040669 0.00452467 0.0
-0.00169237 0.01060229 0.0
-0.00339046 0.01413083 0.0
-0.00528039 0.01582302 0.0
-0.00722694 0.01636728 0.0
-0.00915419 0.01626094 0.0
-0.01102039 0.01579664 0.0
-0.01280100 0.01512235 0.0
-0.01447953 0.01430626 0.0
-0.01604345 0.01338004 0.0
-0.01748259 0.01236099 0.0
-0.01878851 0.01126135 0.0
-0.01995424 0.01009167 0.0
-0.02097413 0.00886180 0.0
-0.02184368 0.00758111 0.0
-0.02255939 0.00625849 0.0
-0.02311862 0.00490233 0.0
-0.02351947 0.00352063 0.0
-0.02376065 0.00212096 0.0
-0.02384143 0.00071060 0.0
-0.02376156 -0.00070334 0.0
-0.02352125 -0.00211384 0.0
-0.02312125 -0.00351379 0.0
-0.02256279 -0.00489590 0.0
-0.02184778 -0.00625258 0.0
-0.02097882 -0.00757585 0.0
-0.01995940 -0.00885728 0.0
-0.01879401 -0.01008795 0.0
-0.01748830 -0.01125849 0.0
-0.01604920 -0.01235903 0.0
-0.01448518 -0.01337898 0.0
-0.01280641 -0.01430606 0.0
-0.01102541 -0.01512296 0.0
-0.00915868 -0.01579795 0.0
-0.00723082 -0.01626279 0.0
-0.00528359 -0.01636946 0.0
-0.00339298 -0.01582526 0.0
-0.00169429 -0.01413282 0.0
-0.00040816 -0.01060375 0.0
0.00000000 -0.00511391 0.0
-0.00043461 0.00511929 0.0
-0.00180647 0.01197401 0.0
-0.00361808 0.01594230 0.0
-0.00563343 0.01783823 0.0
-0.00770751 0.01844123 0.0
-0.00975876 0.01831205 0.0
-0.01174229 0.01778005 0.0
-0.01363185 0.01701178 0.0
-0.01540998 0.01608428 0.0
-0.01706367 0.01503364 0.0
-0.01858258 0.01387981 0.0
-0.01995834 0.01263701 0.0
-0.02118422 0.01131747 0.0
-0.02225494 0.00993245 0.0
-0.02316642 0.00849255 0.0
-0.02391566 0.00700767 0.0
-0.02450044 0.00548708 0.0
-0.02491926 0.00393942 0.0
-0.02517113 0.00237281 0.0
-0.02525550 0.00079496 0.0
-0.02517217 -0.00078666 0.0
-0.02492133 -0.00236467 0.0
-0.02450348 -0.00393161 0.0
-0.02391959 -0.00547975 0.0
-0.02317116 -0.00700096 0.0
-0.02226036 -0.00848660 0.0
-0.02119019 -0.00992737 0.0
-0.01996471 -0.01131335 0.0
-0.01858918 -0.01263393 0.0
-0.01707033 -0.01387779 0.0
-0.01541651 -0.01503270 0.0
-0.01363807 -0.01608439 0.0
-0.01174805 -0.01701286 0.0
-0.00976389 -0.01778198 0.0
-0.00771191 -0.01831464 0.0
-0.00563702 -0.01844422 0.0
-0.00362086 -0.01784128 0.0
-0.00180852 -0.01594503 0.0
-0.00043611 -0.01197600 0.0
0.00000000 -0.00575059 0.0
-0.00046664 0.00575669 0.0
-0.00193712 0.01344433 0.0
-0.00387840 0.01788343 0.0
-0.00603671 0.01999640 0.0
-0.00825583 0.02066021 0.0
-0.01044767 0.02050375 0.0
-0.01256374 0.01989599 0.0
-0.01457578 0.01902370 0.0
-0.01646528 0.01797366 0.0
-0.01821873 0.01678698 0.0
-0.01982569 0.01548666 0.0
-0.02127797 0.01408921 0.0
-0.02256927 0.01260869 0.0
-0.02369486 0.01105797 0.0
-0.02465132 0.00944894 0.0
-0.02543627 0.00779257 0.0
-0.02604813 0.00609890 0.0
-0.02648590 0.00437717 0.0
-0.02674901 0.00263590 0.0
-0.02683715 0.00088310 0.0
-0.02675022 -0.00087358 0.0
-0.02648829 -0.00262658 0.0
-0.02605164 -0.00436823 0.0
-0.02544083 -0.00609052 0.0
-0.02465682 -0.00778493 0.0
-0.02370116 -0.00944219 0.0
-0.02257621 -0.01105225 0.0
-0.02128537 -0.01260410 0.0
-0.01983336 -0.01408585 0.0
-0.01822647 -0.01548458 0.0
-0.01647287 -0.01678619 0.0
-0.01458300 -0.01797413 0.0
-0.01257040 -0.01902534 0.0
-0.01045358 -0.01989867 0.0
-0.00826085 -0.02050723 0.0
-0.00604076 -0.02066416 0.0
-0.00388147 -0.02000043 0.0
-0.00193932 -0.01788702 0.0
-0.00046820 -0.01344698 0.0
0.00000000 -0.00643613 0.0
-0.00050336 0.00644303 0.0
-0.00208639 0.01502720 0.0
-0.00417538 0.01997226 0.0
-0.00649621 0.02231707 0.0
-0.00887971 0.02304356 0.0
-0.01123028 0.02285417 0.0
-0.01349525 0.02216083 0.0
-0.01564409 0.02117241 0.0
-0.01765713 0.01998658 0.0
-0.01952041 0.01865014 0.0
-0.02122348 0.01718963 0.0
-0.02275857 0.01562419 0.0
-0.02412001 0.01397005 0.0
-0.02530390 0.01224178 0.0
-0.02630770 0.01045269 0.0
-0.02712995 0.00861475 0.0
-0.02776986 0.00673878 0.0
-0.02822717 0.00483445 0.0
-0.02850182 0.00291053 0.0
-0.02859383 0.00097510 0.0
-0.02850322 -0.00096419 0.0
-0.02822994 -0.00289984 0.0
-0.02777394 -0.00482420 0.0
-0.02713524 -0.00672919 0.0
-0.02631409 -0.00860602 0.0
-0.02531122 -0.01044499 0.0
-0.02412809 -0.01223530 0.0
-0.02276720 -0.01396491 0.0
-0.02123243 -0.01562051 0.0
-0.01952944 -0.01718747 0.0
-0.01766599 -0.01864952 0.0
-0.01565251 -0.01998748 0.0
-0.01350299 -0.02117473 0.0
-0.01123713 -0.02216439 0.0
-0.00888550 -0.02285872 0.0
-0.00650083 -0.02304868 0.0
-0.00417883 -0.02232227 0.0
-0.00208878 -0.01997691 0.0
-0.00050497 -0.01503063 0.0
0.00000000 -0.00717749 0.0
-0.00054545 0.00718523 0.0
-0.00225681 0.01673839 0.0
-0.00451392 0.02222920 0.0
-0.00701921 0.02482220 0.0
-0.00958862 0.02561280 0.0
-0.01211784 0.02538324 0.0
-0.01454940 0.02459224 0.0
-0.01685020 0.02347306 0.0
-0.01899932 0.02213557 0.0
-0.02098241 0.02063311 0.0
-0.02278928 0.01899639 0.0
-0.02441280 0.01724761 0.0
-0.02584829 0.01540545 0.0
-0.02709300 0.01348642 0.0
-0.02814564 0.01150525 0.0
-0.02900592 0.00947498 0.0
-0.02967420 0.00740701 0.0
-0.03015109 0.00531132 0.0
-0.03043725 0.00319667 0.0
-0.03053312 0.00107098 0.0
-0.03043887 -0.00105843 0.0
-0.03015430 -0.00318438 0.0
-0.02967893 -0.00529954 0.0
-0.02901207 -0.00739600 0.0
-0.02815307 -0.00946497 0.0
-0.02710153 -0.01149646 0.0
-0.02585772 -0.01347904 0.0
-0.02442288 -0.01539965 0.0
-0.02279975 -0.01724354 0.0
-0.02099299 -0.01899413 0.0
-0.01900969 -0.02063270 0.0
-0.01686006 -0.02213698 0.0
-0.01455847 -0.02347618 0.0
-0.01212584 -0.02459687 0.0
-0.00959534 -0.02538906 0.0
-0.00702453 -0.02561934 0.0
-0.00451782 -0.02482882 0.0
-0.00225943 -0.02223513 0.0
-0.00054712 -0.01674276 0.0
0.00000000 -0.00798257 0.0
-0.00059379 0.00799124 0.0
-0.00245153 0.01859594 0.0
-0.00490002 0.02467751 0.0
-0.00761466 0.02753667 0.0
-0.01039414 0.02839211 0.0
-0.01312406 0.02811300 0.0
-0.01574139 0.02720941 0.0
-0.01821014 0.02594167 0.0
-0.02050813 0.02443343 0.0
-0.02262079 0.02274564 0.0
-0.02453845 0.02091393 0.0
-0.02625506 0.01896411 0.0
-0.02776734 0.01691763 0.0
-0.02907417 0.01479316 0.0
-0.03017591 0.01260693 0.0
-0.03107389 0.01037291 0.0
-0.03176989 0.00810297 0.0
-0.03226574 0.00580712 0.0
-0.03256294 0.00349386 0.0
-0.03266253 0.00117055 0.0
-0.03256483 -0.00115612 0.0
-0.03226946 -0.00347973 0.0
-0.03177539 -0.00579358 0.0
-0.03108104 -0.00809030 0.0
-0.03018455 -0.01036139 0.0
-0.02908412 -0.01259683 0.0
-0.02777835 -0.01478471 0.0
-0.02626686 -0.01691105 0.0
-0.02455074 -0.01895956 0.0
-0.02263322 -0.02091153 0.0
-0.02052034 -0.02274544 0.0
-0.01822176 -0.02443542 0.0
-0.01575206 -0.02594573 0.0
-0.01313346 -0.02721532 0.0
-0.01040200 -0.02812036 0.0
-0.00762082 -0.02840034 0.0
-0.00490446 -0.02754500 0.0
-0.00245443 -0.02468498 0.0
-0.00059554 -0.01860147 0.0
0.00000000 -0.00886059 0.0
-0.00064948 0.00887026 0.0
-0.00267450 0.02062076 0.0
-0.00534118 0.02734400 0.0
-0.00829366 0.03048895 0.0
-0.01131054 0.03140882 0.0
-0.01426570 0.03106799 0.0
-0.01708966 0.03003321 0.0
-0.01974322 0.02859507 0.0
-0.02220295 0.02689300 0.0
-0.02445434 0.02499690 0.0
-0.02648872 0.02294818 0.0
-0.02830163 0.02077691 0.0
-0.02989184 0.01850774 0.0
-0.03126040 0.01616164 0.0
-0.03240993 0.01375637 0.0
-0.03334383 0.01130675 0.0
-0.03406574 0.00882483 0.0
-0.03457899 0.00632034 0.0
-0.03488625 0.00380110 0.0
-0.03498921 0.00127350 0.0
-0.03488843 -0.00125690 0.0
-0.03458331 -0.00378483 0.0
-0.03407211 -0.00630474 0.0
-0.03335213 -0.00881023 0.0
-0.03241999 -0.01129347 0.0
-0.03127201 -0.01374473 0.0
-0.02990471 -0.01615191 0.0
-0.02831547 -0.01850019 0.0
-0.02650315 -0.02077176 0.0
-0.02446898 -0.02294557 0.0
-0.02221735 -0.02499693 0.0
-0.01975695 -0.02689567 0.0
-0.01710228 -0.02860024 0.0
-0.01427680 -0.03004063 0.0
-0.01131980 -0.03107719 0.0
-0.00830086 -0.03141910 0.0
-0.00534631 -0.03049936 0.0
-0.00267775 -0.02735335 0.0
-0.00065133 -0.02062769 0.0
0.00000000 -0.00982231 0.0
-0.00071395 0.00983310 0.0
-0.00293072 0.02283732 0.0
-0.00584689 0.03025997 0.0
-0.00907014 0.03371201 0.0
-0.01235564 0.03469412 0.0