# vtk DataFile Version 4.0
2D velocity field
ASCII
DATASET STRUCTURED_GRID
DIMENSIONS 40 40 1
POINTS 1600 float
0.00000000 0.00000000 1.0
1.00000000 0.00000000 1.0
2.00000000 0.00000000 1.0
3.00000000 0.00000000 1.0
4.00000000 0.00000000 1.0
5.00000000 0.00000000 1.0
6.00000000 0.00000000 1.0
7.00000000 0.00000000 1.0
8.00000000 0.00000000 1.0
9.00000000 0.00000000 1.0
10.00000000 0.00000000 1.0
11.00000000 0.00000000 1.0
12.00000000 0.00000000 1.0
13.00000000 0.00000000 1.0
14.00000000 0.00000000 1.0
15.00000000 0.00000000 1.0
16.00000000 0.00000000 1.0
17.00000000 0.00000000 1.0
18.00000000 0.00000000 1.0
19.00000000 0.00000000 1.0
20.00000000 0.00000000 1.0
21.00000000 0.00000000 1.0
22.00000000 0.00000000 1.0
23.00000000 0.00000000 1.0
24.00000000 0.00000000 1.0
25.00000000 0.00000000 1.0
26.00000000 0.00000000 1.0
27.00000000 0.00000000 1.0
28.00000000 0.00000000 1.0
29.00000000 0.00000000 1.0
30.00000000 0.00000000 1.0
31.00000000 0.00000000 1.0
32.00000000 0.00000000 1.0
33.00000000 0.00000000 1.0
34.00000000 0.00000000 1.0
35.00000000 0.00000000 1.0
36.00000000 0.00000000 1.0
37.00000000 0.00000000 1.0
38.00000000 0.00000000 1.0
39.00000000 0.00000000 1.0
0.00000000 1.00000000 1.0
1.00000000 1.00000000 1.0
2.00000000 1.00000000 1.0
3.00000000 1.00000000 1.0
4.00000000 1.00000000 1.0
5.00000000 1.00000000 1.0
6.00000000 1.00000000 1.0
7.00000000 1.00000000 1.0
8.00000000 1.00000000 1.0
9.00000000 1.00000000 1.0
10.00000000 1.00000000 1.0
11.00000000 1.00000000 1.0
12.00000000 1.00000000 1.0
13.00000000 1.00000000 1.0
14.00000000 1.00000000 1.0
15.00000000 1.00000000 1.0
16.00000000 1.00000000 1.0
17.00000000 1.00000000 1.0
18.00000000 1.00000000 1.0
19.00000000 1.00000000 1.0
20.00000000 1.00000000 1.0
21.00000000 1.00000000 1.0
22.00000000 1.00000000 1.0
23.00000000 1.00000000 1.0
24.00000000 1.00000000 1.0
25.00000000 1.00000000 1.0
26.00000000 1.00000000 1.0
27.00000000 1.00000000 1.0
28.00000000 1.00000000 1.0
29.00000000 1.00000000 1.0
30.00000000 1.00000000 1.0
31.00000000 1.00000000 1.0
32.00000000 1.00000000 1.0
33.00000000 1.00000000 1.0
34.00000000 1.00000000 1.0
35.00000000 1.00000000 1.0
36.00000000 1.00000000 1.0
37.00000000 1.00000000 1.0
38.00000000 1.00000000 1.0
39.00000000 1.00000000 1.0
0.00000000 2.00000000 1.0
1.00000000 2.00000000 1.0
2.00000000 2.00000000 1.0
3.00000000 2.00000000 1.0
4.00000000 2.00000000 1.0
5.00000000 2.00000000 1.0
6.00000000 2.00000000 1.0
7.00000000 2.00000000 1.0
8.00000000 2.00000000 1.0
9.00000000 2.00000000 1.0
10.00000000 2.00000000 1.0
11.00000000 2.00000000 1.0
12.00000000 2.00000000 1.0
13.00000000 2.00000000 1.0
14.00000000 2.00000000 1.0
15.00000000 2.00000000 1.0
16.00000000 2.00000000 1.0
17.00000000 2.00000000 1.0
18.00000000 2.00000000 1.0
19.00000000 2.00000000 1.0
20.00000000 2.00000000 1.0
21.00000000 2.00000000 1.0
22.00000000 2.00000000 1.0
23.00000000 2.00000000 1.0
24.00000000 2.00000000 1.0
25.00000000 2.00000000 1.0
26.00000000 2.00000000 1.0
27.00000000 2.00000000 1.0
28.00000000 2.00000000 1.0
29.00000000 2.00000000 1.0
30.00000000 2.00000000 1.0
31.00000000 2.00000000 1.0
32.00000000 2.00000000 1.0
33.00000000 2.00000000 1.0
34.00000000 2.00000000 1.0
35.00000000 2.00000000 1.0
36.00000000 2.00000000 1.0
37.00000000 2.00000000 1.0
38.00000000 2.00000000 1.0
39.00000000 2.00000000 1.0
0.00000000 3.00000000 1.0
1.00000000 3.00000000 1.0
2.00000000 3.00000000 1.0
3.00000000 3.00000000 1.0
4.00000000 3.00000000 1.0
5.00000000 3.00000000 1.0
6.00000000 3.00000000 1.0
7.00000000 3.00000000 1.0
8.00000000 3.00000000 1.0
9.00000000 3.00000000 1.0
10.00000000 3.00000000 1.0
11.00000000 3.00000000 1.0
12.00000000 3.00000000 1.0
13.00000000 3.00000000 1.0
14.00000000 3.00000000 1.0
15.00000000 3.00000000 1.0
16.00000000 3.00000000 1.0
17.00000000 3.00000000 1.0
18.00000000 3.00000000 1.0
19.00000000 3.00000000 1.0
20.00000000 3.00000000 1.0
21.00000000 3.00000000 1.0
22.00000000 3.00000000 1.0
23.00000000 3.00000000 1.0
24.00000000 3.00000000 1.0
25.00000000 3.00000000 1.0
26.00000000 3.00000000 1.0
27.00000000 3.00000000 1.0
28.00000000 3.00000000 1.0
29.00000000 3.00000000 1.0
30.00000000 3.00000000 1.0
31.00000000 3.00000000 1.0
32.00000000 3.00000000 1.0
33.00000000 3.00000000 1.0
34.00000000 3.00000000 1.0
35.00000000 3.00000000 1.0
36.00000000 3.00000000 1.0
37.00000000 3.00000000 1.0
38.00000000 3.00000000 1.0
39.00000000 3.00000000 1.0
0.00000000 4.00000000 1.0
1.00000000 4.00000000 1.0
2.00000000 4.00000000 1.0
3.00000000 4.00000000 1.0
4.00000000 4.00000000 1.0
5.00000000 4.00000000 1.0
6.00000000 4.00000000 1.0
7.00000000 4.00000000 1.0
8.00000000 4.00000000 1.0
9.00000000 4.00000000 1.0
10.00000000 4.00000000 1.0
11.00000000 4.00000000 1.0
12.00000000 4.00000000 1.0
13.00000000 4.00000000 1.0
14.00000000 4.00000000 1.0
15.00000000 4.00000000 1.0
16.00000000 4.00000000 1.0
17.00000000 4.00000000 1.0
18.00000000 4.00000000 1.0
19.00000000 4.00000000 1.0
20.00000000 4.00000000 1.0
21.00000000 4.00000000 1.0
22.00000000 4.00000000 1.0
23.00000000 4.00000000 1.0
24.00000000 4.00000000 1.0
25.00000000 4.00000000 1.0
26.00000000 4.00000000 1.0
27.00000000 4.00000000 1.0
28.00000000 4.00000000 1.0
29.00000000 4.00000000 1.0
30.00000000 4.00000000 1.0
31.00000000 4.00000000 1.0
32.00000000 4.00000000 1.0
33.00000000 4.00000000 1.0
34.00000000 4.00000000 1.0
35.00000000 4.00000000 1.0
36.00000000 4.00000000 1.0
37.00000000 4.00000000 1.0
38.00000000 4.00000000 1.0
39.00000000 4.00000000 1.0
0.00000000 5.00000000 1.0
1.00000000 5.00000000 1.0
2.00000000 5.00000000 1.0
3.00000000 5.00000000 1.0
4.00000000 5.00000000 1.0
5.00000000 5.00000000 1.0
6.00000000 5.00000000 1.0
7.00000000 5.00000000 1.0
8.00000000 5.00000000 1.0
9.00000000 5.00000000 1.0
10.00000000 5.00000000 1.0
11.00000000 5.00000000 1.0
12.00000000 5.00000000 1.0
13.00000000 5.00000000 1.0
14.00000000 5.00000000 1.0
15.00000000 5.00000000 1.0
16.00000000 5.00000000 1.0
17.00000000 5.00000000 1.0
18.00000000 5.00000000 1.0
19.00000000 5.00000000 1.0
20.00000000 5.00000000 1.0
21.00000000 5.00000000 1.0
22.00000000 5.00000000 1.0
23.00000000 5.00000000 1.0
24.00000000 5.00000000 1.0
25.00000000 5.00000000 1.0
26.00000000 5.00000000 1.0
27.00000000 5.00000000 1.0
28.00000000 5.00000000 1.0
29.00000000 5.00000000 1.0
30.00000000 5.00000000 1.0
31.00000000 5.00000000 1.0
32.00000000 5.00000000 1.0
33.00000000 5.00000000 1.0
34.00000000 5.00000000 1.0
35.00000000 5.00000000 1.0
36.00000000 5.00000000 1.0
37.00000000 5.00000000 1.0
38.00000000 5.00000000 1.0
39.00000000 5.00000000 1.0
0.00000000 6.00000000 1.0
1.00000000 6.00000000 1.0
2.00000000 6.00000000 1.0
3.00000000 6.00000000 1.0
4.00000000 6.00000000 1.0
5.00000000 6.00000000 1.0
6.00000000 6.00000000 1.0
7.00000000 6.00000000 1.0
8.00000000 6.00000000 1.0
9.00000000 6.00000000 1.0
10.00000000 6.00000000 1.0
11.00000000 6.00000000 1.0
12.00000000 6.00000000 1.0
13.00000000 6.00000000 1.0
14.00000000 6.00000000 1.0
15.00000000 6.00000000 1.0
16.00000000 6.00000000 1.0
17.00000000 6.00000000 1.0
18.00000000 6.00000000 1.0
19.00000000 6.00000000 1.0
20.00000000 6.00000000 1.0
21.00000000 6.00000000 1.0
22.00000000 6.00000000 1.0
23.00000000 6.00000000 1.0
24.00000000 6.00000000 1.0
25.00000000 6.00000000 1.0
26.00000000 6.00000000 1.0
27.00000000 6.00000000 1.0
28.00000000 6.00000000 1.0
29.00000000 6.00000000 1.0
30.00000000 6.00000000 1.0
31.00000000 6.00000000 1.0
32.00000000 6.00000000 1.0
33.00000000 6.00000000 1.0
34.00000000 6.00000000 1.0
35.00000000 6.00000000 1.0
36.00000000 6.00000000 1.0
37.00000000 6.00000000 1.0
38.00000000 6.00000000 1.0
39.00000000 6.00000000 1.0
0.00000000 7.00000000 1.0
1.00000000 7.00000000 1.0
2.00000000 7.00000000 1.0
3.00000000 7.00000000 1.0
4.00000000 7.00000000 1.0
5.00000000 7.00000000 1.0
6.00000000 7.00000000 1.0
7.00000000 7.00000000 1.0
8.00000000 7.00000000 1.0
9.00000000 7.00000000 1.0
10.00000000 7.00000000 1.0
11.00000000 7.00000000 1.0
12.00000000 7.00000000 1.0
13.00000000 7.00000000 1.0
14.00000000 7.00000000 1.0
15.00000000 7.00000000 1.0
16.00000000 7.00000000 1.0
17.00000000 7.00000000 1.0
18.00000000 7.00000000 1.0
19.00000000 7.00000000 1.0
20.00000000 7.00000000 1.0
21.00000000 7.00000000 1.0
22.00000000 7.00000000 1.0
23.00000000 7.00000000 1.0
24.00000000 7.00000000 1.0
25.00000000 7.00000000 1.0
26.00000000 7.00000000 1.0
27.00000000 7.00000000 1.0
28.00000000 7.00000000 1.0
29.00000000 7.00000000 1.0
30.00000000 7.00000000 1.0
31.00000000 7.00000000 1.0
32.00000000 7.00000000 1.0
33.00000000 7.00000000 1.0
34.00000000 7.00000000 1.0
35.00000000 7.00000000 1.0
36.00000000 7.00000000 1.0
37.00000000 7.00000000 1.0
38.00000000 7.00000000 1.0
39.00000000 7.00000000 1.0
0.00000000 8.00000000 1.0
1.00000000 8.00000000 1.0
2.00000000 8.00000000 1.0
3.00000000 8.00000000 1.0
4.00000000 8.00000000 1.0
5.00000000 8.00000000 1.0
6.00000000 8.00000000 1.0
7.00000000 8.00000000 1.0
8.00000000 8.00000000 1.0
9.00000000 8.00000000 1.0
10.00000000 8.00000000 1.0
11.00000000 8.00000000 1.0
12.00000000 8.00000000 1.0
13.00000000 8.00000000 1.0
14.00000000 8.00000000 1.0
15.00000000 8.00000000 1.0
16.00000000 8.00000000 1.0
17.00000000 8.00000000 1.0
18.00000000 8.00000000 1.0
19.00000000 8.00000000 1.0
20.00000000 8.00000000 1.0
21.00000000 8.00000000 1.0
22.00000000 8.00000000 1.0
23.00000000 8.00000000 1.0
24.00000000 8.00000000 1.0
25.00000000 8.00000000 1.0
26.00000000 8.00000000 1.0
27.00000000 8.00000000 1.0
28.00000000 8.00000000 1.0
29.00000000 8.00000000 1.0
30.00000000 8.00000000 1.0
31.00000000 8.00000000 1.0
32.00000000 8.00000000 1.0
33.00000000 8.00000000 1.0
34.00000000 8.00000000 1.0
35.00000000 8.00000000 1.0
36.00000000 8.00000000 1.0
37.00000000 8.00000000 1.0
38.00000000 8.00000000 1.0
39.00000000 8.00000000 1.0
0.00000000 9.00000000 1.0
1.00000000 9.00000000 1.0
2.00000000 9.00000000 1.0
3.00000000 9.00000000 1.0
4.00000000 9.00000000 1.0
5.00000000 9.00000000 1.0
6.00000000 9.00000000 1.0
7.00000000 9.00000000 1.0
8.00000000 9.00000000 1.0
[...]
POINT_DATA 1600
VECTORS velocity double
0.00000000 0.00002853 0.0
0.00000026 -0.00002865 0.0
0.00000049 -0.00000772 0.0
0.00000063 0.00005245 0.0
0.00000068 0.00012431 0.0
0.00000064 0.00019387 0.0
0.00000053 0.00025470 0.0
0.00000038 0.00030401 0.0
0.00000020 0.00034080 0.0
0.00000000 0.00036499 0.0
-0.00000021 0.00037696 0.0
-0.00000042 0.00037740 0.0
-0.00000062 0.00036717 0.0
-0.00000081 0.00034725 0.0
-0.00000099 0.00031872 0.0
-0.00000114 0.00028266 0.0
-0.00000127 0.00024023 0.0
-0.00000138 0.00019255 0.0
-0.00000146 0.00014080 0.0
-0.00000150 0.00008611 0.0
-0.00000152 0.00002965 0.0
-0.00000150 -0.00002743 0.0
-0.00000146 -0.00008397 0.0
-0.00000138 -0.00013881 0.0
-0.00000128 -0.00019078 0.0
-0.00000115 -0.00023869 0.0
-0.00000099 -0.00028139 0.0
-0.00000082 -0.00031767 0.0
-0.00000062 -0.00034639 0.0
-0.00000042 -0.00036642 0.0
-0.00000021 -0.00037667 0.0
0.00000000 -0.00037616 0.0
0.00000021 -0.00036402 0.0
0.00000039 -0.00033959 0.0
0.00000054 -0.00030249 0.0
0.00000064 -0.00025287 0.0
0.00000068 -0.00019177 0.0
0.00000063 -0.00012199 0.0
0.00000048 -0.00005005 0.0
0.00000025 0.00000998 0.0
0.00000000 0.00008715 0.0
0.00010154 -0.00008772 0.0
0.00007401 0.00003457 0.0
-0.00015378 0.00029596 0.0
-0.00061363 0.00060115 0.0
-0.00129997 0.00089856 0.0
-0.00218718 0.00116153 0.0
-0.00323944 0.00137696 0.0
-0.00441629 0.00153911 0.0
-0.00567587 0.00164644 0.0
-0.00697693 0.00169991 0.0
-0.00828008 0.00170201 0.0
-0.00954854 0.00165627 0.0
-0.01074877 0.00156687 0.0
-0.01185075 0.00143846 0.0
-0.01282824 0.00127593 0.0
-0.01365890 0.00108438 0.0
-0.01432438 0.00086898 0.0
-0.01481038 0.00063498 0.0
-0.01510661 0.00038762 0.0
-0.01520686 0.00013217 0.0
-0.01510895 -0.00012610 0.0
-0.01481480 -0.00038189 0.0
-0.01433039 -0.00062990 0.0
-0.01366582 -0.00086479 0.0
-0.01283529 -0.00108122 0.0
-0.01185713 -0.00127384 0.0
-0.01075374 -0.00143735 0.0
-0.00955151 -0.00156654 0.0
-0.00828068 -0.00165640 0.0
-0.00697511 -0.00170224 0.0
-0.00567185 -0.00169983 0.0
-0.00441059 -0.00164567 0.0
-0.00323285 -0.00153732 0.0
-0.00218061 -0.00137394 0.0
-0.00129438 -0.00115724 0.0
-0.00060985 -0.00089314 0.0
-0.00015236 -0.00059498 0.0
0.00007299 -0.00028963 0.0
0.00009871 -0.00002900 0.0
0.00000000 0.00008930 0.0
0.00002975 -0.00009037 0.0
-0.00020537 0.00026970 0.0
-0.00079168 0.00088226 0.0
-0.00176722 0.00157669 0.0
-0.00312196 0.00225330 0.0
-0.00481573 0.00285530 0.0
-0.00679045 0.00335168 0.0
-0.00897846 0.00372712 0.0
-0.01130802 0.00397601 0.0
-0.01370713 0.00409901 0.0
-0.01610599 0.00410087 0.0
-0.01843886 0.00398913 0.0
-0.02064517 0.00377319 0.0
-0.02267045 0.00346373 0.0
-0.02446681 0.00307229 0.0
-0.02599334 0.00261091 0.0
-0.02721636 0.00209200 0.0
-0.02810951 0.00152812 0.0
-0.02865385 0.00093196 0.0
-0.02883792 0.00031624 0.0
-0.02865774 -0.00030628 0.0
-0.02811686 -0.00092277 0.0
-0.02722637 -0.00152040 0.0
-0.02600489 -0.00208627 0.0
-0.02447861 -0.00260751 0.0
-0.02268117 -0.00307128 0.0
-0.02065359 -0.00346493 0.0
-0.01844400 -0.00377613 0.0
-0.01610726 -0.00399314 0.0
-0.01370438 -0.00410512 0.0
-0.01130163 -0.00410258 0.0
-0.00896925 -0.00397805 0.0
-0.00677966 -0.00372691 0.0
-0.00480482 -0.00334878 0.0
-0.00311244 -0.00284962 0.0
-0.00176037 -0.00224521 0.0
-0.00078830 -0.00156706 0.0
-0.00020545 -0.00087247 0.0
0.00002725 -0.00026170 0.0
0.00000000 -0.00003703 0.0
-0.00010111 0.00003570 0.0
-0.00063307 0.00080166 0.0
-0.00165352 0.00190272 0.0
-0.00318577 0.00310894 0.0
-0.00520805 0.00427559 0.0
-0.00766653 0.00531378 0.0
-0.01048612 0.00617128 0.0
-0.01357907 0.00682007 0.0
-0.01685141 0.00724835 0.0
-0.02020778 0.00745537 0.0
-0.02355491 0.00744800 0.0
-0.02680422 0.00723844 0.0
-0.02987367 0.00684263 0.0
-0.03268903 0.00627909 0.0
-0.03518483 0.00556809 0.0
-0.03730499 0.00473107 0.0
-0.03900317 0.00379018 0.0
-0.04024308 0.00276804 0.0
-0.04099864 0.00168752 0.0
-0.04125403 0.00057162 0.0
-0.04100378 -0.00055652 0.0
-0.04025282 -0.00167374 0.0
-0.03901645 -0.00275676 0.0
-0.03732040 -0.00378233 0.0
-0.03520070 -0.00472720 0.0
-0.03270363 -0.00556835 0.0
-0.02988542 -0.00628314 0.0
-0.02681184 -0.00684971 0.0
-0.02355757 -0.00724740 0.0
-0.02020526 -0.00745743 0.0
-0.01684411 -0.00746373 0.0
-0.01356798 -0.00725418 0.0
-0.01047274 -0.00682215 0.0
-0.00765267 -0.00616885 0.0
-0.00519559 -0.00530670 0.0
-0.00317631 -0.00426449 0.0
-0.00164810 -0.00309527 0.0
-0.00063178 -0.00188879 0.0
-0.00010295 -0.00079052 0.0
0.00000000 -0.00030430 0.0
-0.00024488 0.00030287 0.0
-0.00110734 0.00166411 0.0
-0.00259757 0.00339295 0.0
-0.00470961 0.00522098 0.0
-0.00740165 0.00696763 0.0
-0.01060302 0.00851516 0.0
-0.01422219 0.00979044 0.0
-0.01815413 0.01075201 0.0
-0.02228675 0.01138097 0.0
-0.02650598 0.01167461 0.0
-0.03069987 0.01164189 0.0
-0.03476163 0.01130021 0.0
-0.03859199 0.01067299 0.0
-0.04210085 0.00978796 0.0
-0.04520857 0.00867581 0.0
-0.04784675 0.00736924 0.0
-0.04995881 0.00590225 0.0
-0.05150041 0.00430964 0.0
-0.05243962 0.00262673 0.0
-0.05275709 0.00088909 0.0
-0.05244613 -0.00086748 0.0
-0.05151277 -0.00260709 0.0
-0.04997577 -0.00429376 0.0
-0.04786660 -0.00589150 0.0
-0.04522931 -0.00736449 0.0
-0.04212039 -0.00867727 0.0
-0.03860836 -0.00979517 0.0
-0.03477324 -0.01068484 0.0
-0.03070563 -0.01131501 0.0
-0.02650549 -0.01165757 0.0
-0.02228034 -0.01168889 0.0
-0.01814286 -0.01139166 0.0
-0.01420771 -0.01075730 0.0
-0.01058740 -0.00978915 0.0
-0.00738707 -0.00850703 0.0
-0.00469803 -0.00695353 0.0
-0.00259032 -0.00520298 0.0
-0.00110479 -0.00337432 0.0
-0.00024618 -0.00164913 0.0
0.00000000 -0.00070878 0.0
-0.00038508 0.00070739 0.0
-0.00158316 0.00286219 0.0
-0.00355391 0.00536370 0.0
-0.00625470 0.00792176 0.0
-0.00961725 0.01033017 0.0
-0.01355001 0.01244792 0.0
-0.01794330 0.01418372 0.0
-0.02267511 0.01548382 0.0
-0.02761685 0.01632271 0.0
-0.03263830 0.01669606 0.0
-0.03761177 0.01661536 0.0
-0.04241546 0.01610390 0.0
-0.04693602 0.01519355 0.0
-0.05107050 0.01392244 0.0
-0.05472780 0.01233311 0.0
-0.05782962 0.01047106 0.0
-0.06031118 0.00838381 0.0
-0.06212166 0.00612012 0.0
-0.06322446 0.00372953 0.0
-0.06359740 0.00126203 0.0
-0.06323281 -0.00123207 0.0
-0.06213759 -0.00370231 0.0
-0.06033322 -0.00609813 0.0
-0.05785574 -0.00836899 0.0
-0.05475560 -0.01046462 0.0
-0.05109746 -0.01233541 0.0
-0.04695973 -0.01393290 0.0
-0.04243389 -0.01521068 0.0
-0.03762348 -0.01612542 0.0
-0.03264259 -0.01663845 0.0
-0.02761389 -0.01671759 0.0
-0.02266590 -0.01633965 0.0
-0.01792958 -0.01549361 0.0
-0.01353407 -0.01418466 0.0
-0.00960158 -0.01243953 0.0
-0.00624165 -0.01031345 0.0
-0.00354523 -0.00789939 0.0
-0.00157959 -0.00533996 0.0
-0.00038597 -0.00284275 0.0
0.00000000 -0.00124260 0.0
-0.00051729 0.00124134 0.0
-0.00204429 0.00438919 0.0
-0.00449373 0.00781315 0.0
-0.00778401 0.01121204 0.0
-0.01181642 0.01436259 0.0
-0.01647502 0.01710652 0.0
-0.02162959 0.01933829 0.0
-0.02714011 0.02099434 0.0
-0.03286160 0.02204421 0.0
-0.03864870 0.02248315 0.0
-0.04435963 0.02232630 0.0
-0.04985959 0.02160386 0.0
-0.05502338 0.02035733 0.0
-0.05973742 0.01863649 0.0
-0.06390129 0.01649698 0.0
-0.06742877 0.01399854 0.0
-0.07024853 0.01120357 0.0
-0.07230465 0.00817624 0.0
-0.07355687 0.00498174 0.0
-0.07398077 0.00168593 0.0
-0.07356788 -0.00164496 0.0
-0.07232576 -0.00494444 0.0
-0.07027798 -0.00814591 0.0
-0.06746413 -0.01118284 0.0
-0.06393966 -0.01398909 0.0
-0.05977571 -0.01649936 0.0
-0.05505859 -0.01865003 0.0
-0.04988911 -0.02038016 0.0
-0.04438147 -0.02163306 0.0
-0.03866173 -0.02235819 0.0
-0.03286567 -0.02251365 0.0
-0.02713605 -0.02206927 0.0
-0.02161917 -0.02101049 0.0
-0.01646071 -0.01934312 0.0
-0.01180106 -0.01709917 0.0
-0.00777041 -0.01434411 0.0
-0.00448417 -0.01118563 0.0
-0.00203998 -0.00778416 0.0
-0.00051786 -0.00436486 0.0
0.00000000 -0.00189831 0.0
-0.00064176 0.00189726 0.0
-0.00248831 0.00623574 0.0
-0.00541054 0.01073538 0.0
-0.00928822 0.01508972 0.0
-0.01399025 0.01906462 0.0
-0.01937361 0.02248988 0.0
-0.02528525 0.02524993 0.0
-0.03156557 0.02727466 0.0
-0.03805249 0.02853113 0.0
-0.04458555 0.02901622 0.0
-0.05100963 0.02875038 0.0
-0.05717809 0.02777232 0.0
-0.06295536 0.02613460 0.0
-0.06821888 0.02390000 0.0
-0.07286057 0.02113868 0.0
-0.07678785 0.01792581 0.0
-0.07992427 0.01433999 0.0
-0.08220994 0.01046191 0.0
-0.08360180 0.00637360 0.0
-0.08407372 0.00215785 0.0
-0.08361660 -0.00210207 0.0
-0.08223844 -0.00632260 0.0
-0.07996435 -0.01042000 0.0
-0.07683654 -0.01431064 0.0
-0.07291433 -0.01791130 0.0
-0.06827385 -0.02113984 0.0
-0.06300774 -0.02391613 0.0
-0.05722446 -0.02616344 0.0
-0.05104725 -0.02781027 0.0
-0.04461265 -0.02879280 0.0
-0.03806841 -0.02905789 0.0
-0.03157086 -0.02856682 0.0
-0.02528159 -0.02729976 0.0
-0.01936363 -0.02526109 0.0
-0.01397717 -0.02248563 0.0
-0.00927539 -0.01904589 0.0
-0.00540086 -0.01506015 0.0
-0.00248362 -0.01070140 0.0
-0.00064212 -0.00620636 0.0
0.00000000 -0.00267055 0.0
-0.00076044 0.00266976 0.0
-0.00291909 0.00839438 0.0
-0.00630928 0.01412557 0.0
-0.01077344 0.01955388 0.0
-0.01614715 0.02443832 0.0
-0.02225843 0.02860116 0.0
-0.02892940 0.03192089 0.0
-0.03597917 0.03432443 0.0
-0.04322749 0.03577945 0.0
-0.05049836 0.03628708 0.0
-0.05762342 0.03587544 0.0
-0.06444485 0.03459375 0.0
-0.07081770 0.03250744 0.0
-0.07661163 0.02969394 0.0
-0.08171225 0.02623929 0.0
-0.08602189 0.02223546 0.0
-0.08946018 0.01777828 0.0
-0.09196431 0.01296604 0.0
-0.09348913 0.00789842 0.0
-0.09400727 0.00267599 0.0
-0.09350915 -0.00260020 0.0
-0.09200300 -0.00782875 0.0
-0.08951495 -0.01290805 0.0
-0.08608909 -0.01773650 0.0
-0.08178747 -0.02221293 0.0
-0.07669004 -0.02623727 0.0
-0.07089443 -0.02971175 0.0
-0.06451541 -0.03254246 0.0
-0.05768404 -0.03464164 0.0
-0.05054636 -0.03593048 0.0
-0.04326150 -0.03634274 0.0
-0.03599927 -0.03582905 0.0
-0.02893707 -0.03436196 0.0
-0.02225639 -0.03194176 0.0
-0.01613900 -0.02860303 0.0
-0.01076316 -0.02442174 0.0
-0.00630053 -0.01952277 0.0
-0.00291450 -0.01408743 0.0
-0.00076073 -0.00836013 0.0
0.00000000 -0.00355647 0.0
-0.00087575 0.00355599 0.0
-0.00334298 0.01086161 0.0
-0.00720020 0.01798279 0.0
-0.01225356 0.02460724 0.0
-0.01830478 0.03048954 0.0
-0.02515149 0.03544787 0.0
-0.03258918 0.03935858 0.0
-0.04041411 0.04214936 0.0
-0.04842661 0.04379195 0.0
-0.05643450 0.04429497 0.0
-0.06425603 0.04369698 0.0
-0.07172254 0.04206025 0.0
-0.07868038 0.03946528 0.0
-0.08499245 0.03600601 0.0
-0.09053913 0.03178597 0.0
-0.09521885 0.02691518 0.0
-0.09894839 0.02150782 0.0
-0.10166290 0.01568055 0.0
-0.10331591 0.00955143 0.0
-0.10387922 0.00323930 0.0
-0.10334285 -0.00313656 0.0
-0.10171513 -0.00945647 0.0
-0.09902271 -0.01560047 0.0
-0.09531077 -0.02144845 0.0
-0.09064315 -0.02688055 0.0
-0.08510248 -0.03177794 0.0
-0.07879019 -0.03602403 0.0
-0.07182623 -0.03950642 0.0
-0.06434851 -0.04211936 0.0
-0.05651186 -0.04376713 0.0
-0.04848651 -0.04436810 0.0
-0.04045589 -0.04385967 0.0
-0.03261397 -0.04220387 0.0
-0.02516202 -0.03939372 0.0
-0.01830502 -0.03546003 0.0
-0.01224817 -0.03047858 0.0
-0.00719378 -0.02457717 0.0
-0.00333915 -0.01794206 0.0
-0.00087613 -0.01082315 0.0
0.00000000 -0.00455572 0.0
-0.00099008 0.00455559 0.0
-0.00376706 0.01363859 0.0
-0.00809552 0.02231124 0.0
-0.01374572 0.03025745 0.0
-0.02048484 0.03722866 0.0
-0.02807876 0.04304179 0.0
-0.03629473 0.04757456 0.0
-0.04490462 0.05075924 0.0
-0.05368821 0.05257554 0.0
-0.06243637 0.05304313 0.0
-0.07095379 0.05221439 0.0
-0.07906117 0.05016764 0.0
-0.08659686 0.04700097 0.0
-0.09341785 0.04282700 0.0
-0.09940039 0.03776850 0.0
-0.10444012 0.03195492 0.0
-0.10845204 0.02551974 0.0
-0.11137020 0.01859871 0.0
-0.11314745 0.01132869 0.0
-0.11375521 0.00384706 0.0
-0.11318327 -0.00370850 0.0
-0.11143981 -0.01119993 0.0
-0.10855153 -0.01848874 0.0
-0.10456394 -0.02543604 0.0
-0.09954170 -0.03190279 0.0
-0.09356903 -0.03775061 0.0
-0.08674997 -0.04284309 0.0
-0.07920857 -0.04704782 0.0
-0.07108864 -0.05023928 0.0
-0.06255322 -0.05230255 0.0
-0.05378336 -0.05313796 0.0
-0.04497645 -0.05266659 0.0
-0.03634377 -0.05083655 0.0
-0.02810761 -0.04762988 0.0
-0.02049781 -0.04306982 0.0
-0.01374822 -0.03722817 0.0
-0.00809321 -0.03023218 0.0
-0.00376483 -0.02227045 0.0
-0.00099079 -0.01359718 0.0
0.00000000 -0.00567024 0.0
-0.00110565 0.00567051 0.0
-0.00419823 0.01673117 0.0
-0.00900765 0.02712066 0.0
-0.01526769 0.03651749 0.0
-0.02270984 0.04467080 0.0
-0.03106666 0.05139861 0.0
-0.04007559 0.05658349 0.0
-0.04948264 0.06016629 0.0
-0.05904592 0.06213882 0.0
-0.06853875 0.06253596 0.0
-0.07775211 0.06142775 0.0
-0.08649643 0.05891196 0.0
-0.09460273 0.05510727 0.0
-0.10192313 0.05014740 0.0
-0.10833090 0.04417628 0.0
-0.11372012 0.03734413 0.0
-0.11800511 0.02980473 0.0
-0.12111983 0.02171343 0.0
-0.12301722 0.01322608 0.0
-0.12366874 0.00449858 0.0
-0.12306409 -0.00431315 0.0
-0.12121111 -0.01305291 0.0
-0.11813604 -0.02156382 0.0
-0.11388389 -0.02968819 0.0
-0.10851910 -0.03726758 0.0
-0.10212625 -0.04414346 0.0
-0.09481079 -0.05015855 0.0
-0.08669963 -0.05515898 0.0
-0.07794149 -0.05899741 0.0
-0.06870687 -0.06153717 0.0
-0.05918736 -0.06265747 0.0
-0.04959443 -0.06225952 0.0
-0.04015742 -0.06027356 0.0
-0.03112080 -0.05666649 0.0
-0.02274085 -0.05144978 0.0
-0.01528177 -0.04468725 0.0
-0.00901170 -0.03650225 0.0
-0.00419867 -0.02708348 0.0
-0.00110699 -0.01668886 0.0
0.00000000 -0.00690403 0.0
-0.00122442 0.00690476 0.0
-0.00464291 0.02014965 0.0
-0.00994837 0.03242612 0.0
-0.01683646 0.04340559 0.0
-0.02500114 0.05283548 0.0
-0.03413982 0.06053729 0.0
-0.04395829 0.06640196 0.0
-0.05417528 0.07038328 0.0
-0.06452626 0.07248980 0.0
-0.07476653 0.07277623 0.0
-0.08467344 0.07133467 0.0
-0.09404772 0.06828624 0.0
-0.10271404 0.06377358 0.0
-0.11052087 0.05795423 0.0
-0.11733990 0.05099531 0.0
-0.12306504 0.04306927 0.0
-0.12761128 0.03435097 0.0
-0.13091359 0.02501574 0.0
-0.13292586 0.01523835 0.0
-0.13362012 0.00519285 0.0
-0.13298613 -0.00494715 0.0
-0.13103118 -0.01500786 0.0
-0.12778043 -0.02481457 0.0
-0.12327750 -0.03419111 0.0
-0.11758544 -0.04295964 0.0
-0.11078779 -0.05094110 0.0
-0.10298993 -0.05795641 0.0
-0.09432022 -0.06382869 0.0
-0.08493102 -0.06838661 0.0
-0.07499929 -0.07146891 0.0
-0.06472661 -0.07293015 0.0
-0.05433850 -0.07264763 0.0
-0.04408285 -0.07052921 0.0
-0.03422743 -0.06652191 0.0
-0.02505650 -0.06062071 0.0
-0.01686655 -0.05287719 0.0
-0.00996149 -0.04340731 0.0
-0.00464733 -0.03239764 0.0
-0.00122675 -0.02010944 0.0
0.00000000 -0.00826294 0.0
-0.00134813 0.00826416 0.0
-0.00510689 0.02390841 0.0
-0.01092840 0.03824763 0.0
-0.01846748 0.05094467 0.0
-0.02737793 0.06174593 0.0
-0.03731957 0.07047893 0.0
-0.04796461 0.07704700 0.0
-0.05900298 0.08142164 0.0
-0.07014663 0.08363345 0.0
-0.08113266 0.08376226 0.0
-0.09172518 0.08192718 0.0
-0.10171615 0.07827721 0.0
-0.11092524 0.07298267 0.0
-0.11919890 0.06622790 0.0
-0.12640898 0.05820538 0.0
-0.13245093 0.04911122 0.0
-0.13724202 0.03914206 0.0
-0.14071954 0.02849325 0.0
-0.14283933 0.01735814 0.0
-0.14357464 0.00592816 0.0
-0.14291545 -0.00560635 0.0
-0.14086826 -0.01705505 0.0
-0.13745649 -0.02822634 0.0
-0.13272131 -0.03892629 0.0
-0.12672294 -0.04895802 0.0
-0.11954228 -0.05812176 0.0
-0.11128283 -0.06621586 0.0
-0.10207260 -0.07303892 0.0
-0.09206592 -0.07839330 0.0
-0.08144483 -0.08208999 0.0
-0.07041998 -0.08395501 0.0
-0.05923054 -0.08383706 0.0
-0.04814324 -0.08161651 0.0
-0.03745010 -0.07721505 0.0
-0.02746496 -0.07060585 0.0
-0.01851878 -0.06182337 0.0
-0.01095381 -0.05097228 0.0
-0.00511686 -0.03823459 0.0
-0.00135190 -0.02387440 0.0
0.00000000 -0.00975442 0.0
-0.00147832 0.00975621 0.0
-0.00559539 0.02802547 0.0
-0.01195741 0.04460965 0.0
-0.02017445 0.05916171 0.0
-0.02985663 0.07142811 0.0
-0.04062322 0.08124552 0.0
-0.05211048 0.08853426 0.0
-0.06397803 0.09328919 0.0
-0.07591360 0.09556903 0.0
-0.08763618 0.09548484 0.0
-0.09889750 0.09318850 0.0
-0.10948219 0.08886191 0.0
-0.11920679 0.08270726 0.0
-0.12791786 0.07493897 0.0
-0.13548960 0.06577713 0.0
-0.14182118 0.05544280 0.0
-0.14683403 0.04415491 0.0
-0.15046941 0.03212864 0.0
-0.15268632 0.01957505 0.0
-0.15345994 0.00670178 0.0
-0.15278071 -0.00628557 0.0
-0.15065409 -0.01918167 0.0
-0.14710097 -0.03177946 0.0
-0.14215879 -0.04386847 0.0
-0.13588328 -0.05523353 0.0
-0.12835071 -0.06565433 0.0
-0.11966050 -0.07490608 0.0
-0.10993800 -0.08276141 0.0
-0.09933732 -0.08899398 0.0
-0.08804368 -0.09338363 0.0
-0.07627528 -0.09572340 0.0
-0.06428416 -0.09582818 0.0
-0.05235580 -0.09354487 0.0
-0.04080725 -0.08876359 0.0
-0.02998365 -0.08142945 0.0
-0.02025291 -0.07155412 0.0
-0.01199883 -0.05922636 0.0
-0.00561275 -0.04462067 0.0
-0.00148406 -0.02800310 0.0
0.00000000 -0.01138749 0.0
-0.00161640 0.01138992 0.0
-0.00611319 0.03252227 0.0
-0.01304408 0.05154054 0.0
-0.02196928 0.06808691 0.0
-0.03245075 0.08190958 0.0
-0.04406351 0.09285828 0.0
-0.05640517 0.10087592 0.0
-0.06910344 0.10598746 0.0
-0.08182137 0.10828695 0.0
-0.09426036 0.10792382 0.0
-0.10616117 0.10508932 0.0
-0.11730321 0.10000395 0.0
-0.12750241 0.09290647 0.0
-0.13660823 0.08404479 0.0
-0.14450002 0.07366892 0.0
-0.15108330 0.06202608 0.0
-0.15628605 0.04935765 0.0
-0.16005540 0.03589799 0.0
-0.16235496 0.02187461 0.0
-0.16316273 0.00750955 0.0
-0.16246992 -0.00697838 0.0
-0.16028061 -0.02137098 0.0
-0.15661225 -0.03544782 0.0
-0.15149710 -0.04898362 0.0
-0.14498441 -0.06174621 0.0
-0.13714339 -0.07349535 0.0
-0.12806663 -0.08398283 0.0
-0.11787398 -0.09295406 0.0
-0.10671643 -0.10015154 0.0
-0.09477976 -0.10532030 0.0
-0.08228761 -0.10821555 0.0
-0.06950340 -0.10861239 0.0
-0.05673087 -0.10631740 0.0
-0.04431271 -0.10118176 0.0
-0.03262704 -0.09311512 0.0
-0.02208162 -0.08209954 0.0
-0.01310574 -0.06820223 0.0
-0.00614005 -0.05158636 0.0
-0.00162471 -0.03251844 0.0
0.00000000 -0.01317263 0.0
-0.00176370 0.01317577 0.0
-0.00666481 0.03742337 0.0
-0.01419640 0.05907213 0.0
-0.02386240 0.07775291 0.0
-0.03517098 0.09321817 0.0
-0.04764844 0.10533574 0.0
-0.06085068 0.11407815 0.0
-0.07437187 0.11950866 0.0
-0.08785021 0.12176529 0.0
-0.10097062 0.12104424 0.0
-0.11346506 0.11758376 0.0
-0.12511060 0.11164948 0.0
-0.13572595 0.10352181 0.0
-0.14516698 0.09348582 0.0
-0.15332175 0.08182368 0.0
-0.16010533 0.06880966 0.0
-0.16545508 0.05470740 0.0
-0.16932634 0.03976925 0.0
-0.17168900 0.02423727 0.0
-0.17252495 0.00834550 0.0
-0.17182651 -0.00767682 0.0
-0.16959603 -0.02360146 0.0
-0.16584650 -0.03919735 0.0
-0.16060327 -0.05422685 0.0
-0.15390679 -0.06844269 0.0
-0.14581630 -0.08158585 0.0
-0.13641425 -0.09338488 0.0
-0.12581135 -0.10355696 0.0
-0.11415183 -0.11181106 0.0
-0.10161856 -0.11785357 0.0
-0.08843758 -0.12139653 0.0
-0.07488152 -0.12216845 0.0
-0.06127126 -0.11992767 0.0
-0.04797532 -0.11447769 0.0
-0.03540660 -0.10568384 0.0
-0.02401600 -0.09349014 0.0
-0.01428302 -0.07793522 0.0
-0.00670353 -0.05916584 0.0
-0.00177528 -0.03744669 0.0
0.00000000 -0.01512183 0.0
-0.00192158 0.01512577 0.0
-0.00725472 0.04275652 0.0
-0.01542200 0.06723941 0.0
-0.02586307 0.08819397 0.0
-0.03802541 0.10538050 0.0
-0.05138122 0.11869156 0.0
-0.06544122 0.12813815 0.0
-0.07976454 0.13383197 0.0
-0.09396478 0.13596552 0.0
-0.10771229 0.13479175 0.0
-0.12073331 0.13060478 0.0
-0.13280647 0.12372265 0.0
-0.14375765 0.11447299 0.0
-0.15345363 0.10318180 0.0
-0.16179540 0.09016546 0.0
-0.16871156 0.07572581 0.0
-0.17415214 0.06014799 0.0
-0.17808341 0.04370052 0.0
-0.18048352 0.02663737 0.0
-0.18133941 0.00920139 0.0
-0.18064499 -0.00837124 0.0
-0.17840049 -0.02584595 0.0
-0.17461328 -0.04298456 0.0
-0.16929984 -0.05954029 0.0
-0.16248912 -0.07525342 0.0
-0.15422698 -0.08984799 0.0
-0.14458176 -0.10303010 0.0
-0.13365064 -0.11448808 0.0
-0.12156643 -0.12389526 0.0
-0.10850458 -0.13091543 0.0
-0.09468948 -0.13521163 0.0
-0.08039975 -0.13645817 0.0
-0.06597149 -0.13435592 0.0
-0.05179883 -0.12865036 0.0
-0.03833105 -0.11915162 0.0
-0.02606590 -0.10575529 0.0
-0.01553873 -0.08846238 0.0
-0.00730794 -0.06739663 0.0
-0.00193720 -0.04281743 0.0
0.00000000 -0.01724872 0.0
-0.00209150 0.01725358 0.0
-0.00788773 0.04855275 0.0
-0.01672872 0.07608039 0.0
-0.02797999 0.09944525 0.0
-0.04101988 0.11842039 0.0
-0.05526022 0.13293189 0.0