# vtk DataFile Version 4.0
2D velocity field
ASCII
DATASET STRUCTURED_GRID
DIMENSIONS 40 40 1
POINTS 1600 float
0.00000000 0.00000000 1.0
1.00000000 0.00000000 1.0
2.00000000 0.00000000 1.0
3.00000000 0.00000000 1.0
4.00000000 0.00000000 1.0
5.00000000 0.00000000 1.0
6.00000000 0.00000000 1.0
7.00000000 0.00000000 1.0
8.00000000 0.00000000 1.0
9.00000000 0.00000000 1.0
10.00000000 0.00000000 1.0
11.00000000 0.00000000 1.0
12.00000000 0.00000000 1.0
13.00000000 0.00000000 1.0
14.00000000 0.00000000 1.0
15.00000000 0.00000000 1.0
16.00000000 0.00000000 1.0
17.00000000 0.00000000 1.0
18.00000000 0.00000000 1.0
19.00000000 0.00000000 1.0
20.00000000 0.00000000 1.0
21.00000000 0.00000000 1.0
22.00000000 0.00000000 1.0
23.00000000 0.00000000 1.0
24.00000000 0.00000000 1.0
25.00000000 0.00000000 1.0
26.00000000 0.00000000 1.0
27.00000000 0.00000000 1.0
28.00000000 0.00000000 1.0
29.00000000 0.00000000 1.0
30.00000000 0.00000000 1.0
31.00000000 0.00000000 1.0
32.00000000 0.00000000 1.0
33.00000000 0.00000000 1.0
34.00000000 0.00000000 1.0
35.00000000 0.00000000 1.0
36.00000000 0.00000000 1.0
37.00000000 0.00000000 1.0
38.00000000 0.00000000 1.0
39.00000000 0.00000000 1.0
0.00000000 1.00000000 1.0
1.00000000 1.00000000 1.0
2.00000000 1.00000000 1.0
3.00000000 1.00000000 1.0
4.00000000 1.00000000 1.0
5.00000000 1.00000000 1.0
6.00000000 1.00000000 1.0
7.00000000 1.00000000 1.0
8.00000000 1.00000000 1.0
9.00000000 1.00000000 1.0
10.00000000 1.00000000 1.0
11.00000000 1.00000000 1.0
12.00000000 1.00000000 1.0
13.00000000 1.00000000 1.0
14.00000000 1.00000000 1.0
15.00000000 1.00000000 1.0
16.00000000 1.00000000 1.0
17.00000000 1.00000000 1.0
18.00000000 1.00000000 1.0
19.00000000 1.00000000 1.0
20.00000000 1.00000000 1.0
21.00000000 1.00000000 1.0
22.00000000 1.00000000 1.0
23.00000000 1.00000000 1.0
24.00000000 1.00000000 1.0
25.00000000 1.00000000 1.0
26.00000000 1.00000000 1.0
27.00000000 1.00000000 1.0
28.00000000 1.00000000 1.0
29.00000000 1.00000000 1.0
30.00000000 1.00000000 1.0
31.00000000 1.00000000 1.0
32.00000000 1.00000000 1.0
33.00000000 1.00000000 1.0
34.00000000 1.00000000 1.0
35.00000000 1.00000000 1.0
36.00000000 1.00000000 1.0
37.00000000 1.00000000 1.0
38.00000000 1.00000000 1.0
39.00000000 1.00000000 1.0
0.00000000 2.00000000 1.0
1.00000000 2.00000000 1.0
2.00000000 2.00000000 1.0
3.00000000 2.00000000 1.0
4.00000000 2.00000000 1.0
5.00000000 2.00000000 1.0
6.00000000 2.00000000 1.0
7.00000000 2.00000000 1.0
8.00000000 2.00000000 1.0
9.00000000 2.00000000 1.0
10.00000000 2.00000000 1.0
11.00000000 2.00000000 1.0
12.00000000 2.00000000 1.0
13.00000000 2.00000000 1.0
14.00000000 2.00000000 1.0
15.00000000 2.00000000 1.0
16.00000000 2.00000000 1.0
17.00000000 2.00000000 1.0
18.00000000 2.00000000 1.0
19.00000000 2.00000000 1.0
20.00000000 2.00000000 1.0
21.00000000 2.00000000 1.0
22.00000000 2.00000000 1.0
23.00000000 2.00000000 1.0
24.00000000 2.00000000 1.0
25.00000000 2.00000000 1.0
26.00000000 2.00000000 1.0
27.00000000 2.00000000 1.0
28.00000000 2.00000000 1.0
29.00000000 2.00000000 1.0
30.00000000 2.00000000 1.0
31.00000000 2.00000000 1.0
32.00000000 2.00000000 1.0
33.00000000 2.00000000 1.0
34.00000000 2.00000000 1.0
35.00000000 2.00000000 1.0
36.00000000 2.00000000 1.0
37.00000000 2.00000000 1.0
38.00000000 2.00000000 1.0
39.00000000 2.00000000 1.0
0.00000000 3.00000000 1.0
1.00000000 3.00000000 1.0
2.00000000 3.00000000 1.0
3.00000000 3.00000000 1.0
4.00000000 3.00000000 1.0
5.00000000 3.00000000 1.0
6.00000000 3.00000000 1.0
7.00000000 3.00000000 1.0
8.00000000 3.00000000 1.0
9.00000000 3.00000000 1.0
10.00000000 3.00000000 1.0
11.00000000 3.00000000 1.0
12.00000000 3.00000000 1.0
13.00000000 3.00000000 1.0
14.00000000 3.00000000 1.0
15.00000000 3.00000000 1.0
16.00000000 3.00000000 1.0
17.00000000 3.00000000 1.0
18.00000000 3.00000000 1.0
19.00000000 3.00000000 1.0
20.00000000 3.00000000 1.0
21.00000000 3.00000000 1.0
22.00000000 3.00000000 1.0
23.00000000 3.00000000 1.0
24.00000000 3.00000000 1.0
25.00000000 3.00000000 1.0
26.00000000 3.00000000 1.0
27.00000000 3.00000000 1.0
28.00000000 3.00000000 1.0
29.00000000 3.00000000 1.0
30.00000000 3.00000000 1.0
31.00000000 3.00000000 1.0
32.00000000 3.00000000 1.0
33.00000000 3.00000000 1.0
34.00000000 3.00000000 1.0
35.00000000 3.00000000 1.0
36.00000000 3.00000000 1.0
37.00000000 3.00000000 1.0
38.00000000 3.00000000 1.0
39.00000000 3.00000000 1.0
0.00000000 4.00000000 1.0
1.00000000 4.00000000 1.0
2.00000000 4.00000000 1.0
3.00000000 4.00000000 1.0
4.00000000 4.00000000 1.0
5.00000000 4.00000000 1.0
6.00000000 4.00000000 1.0
7.00000000 4.00000000 1.0
8.00000000 4.00000000 1.0
9.00000000 4.00000000 1.0
10.00000000 4.00000000 1.0
11.00000000 4.00000000 1.0
12.00000000 4.00000000 1.0
13.00000000 4.00000000 1.0
14.00000000 4.00000000 1.0
15.00000000 4.00000000 1.0
16.00000000 4.00000000 1.0
17.00000000 4.00000000 1.0
18.00000000 4.00000000 1.0
19.00000000 4.00000000 1.0
20.00000000 4.00000000 1.0
21.00000000 4.00000000 1.0
22.00000000 4.00000000 1.0
23.00000000 4.00000000 1.0
24.00000000 4.00000000 1.0
25.00000000 4.00000000 1.0
26.00000000 4.00000000 1.0
27.00000000 4.00000000 1.0
28.00000000 4.00000000 1.0
29.00000000 4.00000000 1.0
30.00000000 4.00000000 1.0
31.00000000 4.00000000 1.0
32.00000000 4.00000000 1.0
33.00000000 4.00000000 1.0
34.00000000 4.00000000 1.0
35.00000000 4.00000000 1.0
36.00000000 4.00000000 1.0
37.00000000 4.00000000 1.0
38.00000000 4.00000000 1.0
39.00000000 4.00000000 1.0
0.00000000 5.00000000 1.0
1.00000000 5.00000000 1.0
2.00000000 5.00000000 1.0
3.00000000 5.00000000 1.0
4.00000000 5.00000000 1.0
5.00000000 5.00000000 1.0
6.00000000 5.00000000 1.0
7.00000000 5.00000000 1.0
8.00000000 5.00000000 1.0
9.00000000 5.00000000 1.0
10.00000000 5.00000000 1.0
11.00000000 5.00000000 1.0
12.00000000 5.00000000 1.0
13.00000000 5.00000000 1.0
14.00000000 5.00000000 1.0
15.00000000 5.00000000 1.0
16.00000000 5.00000000 1.0
17.00000000 5.00000000 1.0
18.00000000 5.00000000 1.0
19.00000000 5.00000000 1.0
20.00000000 5.00000000 1.0
21.00000000 5.00000000 1.0
22.00000000 5.00000000 1.0
23.00000000 5.00000000 1.0
24.00000000 5.00000000 1.0
25.00000000 5.00000000 1.0
26.00000000 5.00000000 1.0
27.00000000 5.00000000 1.0
28.00000000 5.00000000 1.0
29.00000000 5.00000000 1.0
30.00000000 5.00000000 1.0
31.00000000 5.00000000 1.0
32.00000000 5.00000000 1.0
33.00000000 5.00000000 1.0
34.00000000 5.00000000 1.0
35.00000000 5.00000000 1.0
36.00000000 5.00000000 1.0
37.00000000 5.00000000 1.0
38.00000000 5.00000000 1.0
39.00000000 5.00000000 1.0
0.00000000 6.00000000 1.0
1.00000000 6.00000000 1.0
2.00000000 6.00000000 1.0
3.00000000 6.00000000 1.0
4.00000000 6.00000000 1.0
5.00000000 6.00000000 1.0
6.00000000 6.00000000 1.0
7.00000000 6.00000000 1.0
8.00000000 6.00000000 1.0
9.00000000 6.00000000 1.0
10.00000000 6.00000000 1.0
11.00000000 6.00000000 1.0
12.00000000 6.00000000 1.0
13.00000000 6.00000000 1.0
14.00000000 6.00000000 1.0
15.00000000 6.00000000 1.0
16.00000000 6.00000000 1.0
17.00000000 6.00000000 1.0
18.00000000 6.00000000 1.0
19.00000000 6.00000000 1.0
20.00000000 6.00000000 1.0
21.00000000 6.00000000 1.0
22.00000000 6.00000000 1.0
23.00000000 6.00000000 1.0
24.00000000 6.00000000 1.0
25.00000000 6.00000000 1.0
26.00000000 6.00000000 1.0
27.00000000 6.00000000 1.0
28.00000000 6.00000000 1.0
29.00000000 6.00000000 1.0
30.00000000 6.00000000 1.0
31.00000000 6.00000000 1.0
32.00000000 6.00000000 1.0
33.00000000 6.00000000 1.0
34.00000000 6.00000000 1.0
35.00000000 6.00000000 1.0
36.00000000 6.00000000 1.0
37.00000000 6.00000000 1.0
38.00000000 6.00000000 1.0
39.00000000 6.00000000 1.0
0.00000000 7.00000000 1.0
1.00000000 7.00000000 1.0
2.00000000 7.00000000 1.0
3.00000000 7.00000000 1.0
4.00000000 7.00000000 1.0
5.00000000 7.00000000 1.0
6.00000000 7.00000000 1.0
7.00000000 7.00000000 1.0
8.00000000 7.00000000 1.0
9.00000000 7.00000000 1.0
10.00000000 7.00000000 1.0
11.00000000 7.00000000 1.0
12.00000000 7.00000000 1.0
13.00000000 7.00000000 1.0
14.00000000 7.00000000 1.0
15.00000000 7.00000000 1.0
16.00000000 7.00000000 1.0
17.00000000 7.00000000 1.0
18.00000000 7.00000000 1.0
19.00000000 7.00000000 1.0
20.00000000 7.00000000 1.0
21.00000000 7.00000000 1.0
22.00000000 7.00000000 1.0
23.00000000 7.00000000 1.0
24.00000000 7.00000000 1.0
25.00000000 7.00000000 1.0
26.00000000 7.00000000 1.0
27.00000000 7.00000000 1.0
28.00000000 7.00000000 1.0
29.00000000 7.00000000 1.0
30.00000000 7.00000000 1.0
31.00000000 7.00000000 1.0
32.00000000 7.00000000 1.0
33.00000000 7.00000000 1.0
34.00000000 7.00000000 1.0
35.00000000 7.00000000 1.0
36.00000000 7.00000000 1.0
37.00000000 7.00000000 1.0
38.00000000 7.00000000 1.0
39.00000000 7.00000000 1.0
0.00000000 8.00000000 1.0
1.00000000 8.00000000 1.0
2.00000000 8.00000000 1.0
3.00000000 8.00000000 1.0
4.00000000 8.00000000 1.0
5.00000000 8.00000000 1.0
6.00000000 8.00000000 1.0
7.00000000 8.00000000 1.0
8.00000000 8.00000000 1.0
9.00000000 8.00000000 1.0
10.00000000 8.00000000 1.0
11.00000000 8.00000000 1.0
12.00000000 8.00000000 1.0
13.00000000 8.00000000 1.0
14.00000000 8.00000000 1.0
15.00000000 8.00000000 1.0
16.00000000 8.00000000 1.0
17.00000000 8.00000000 1.0
18.00000000 8.00000000 1.0
19.00000000 8.00000000 1.0
20.00000000 8.00000000 1.0
21.00000000 8.00000000 1.0
22.00000000 8.00000000 1.0
23.00000000 8.00000000 1.0
24.00000000 8.00000000 1.0
25.00000000 8.00000000 1.0
26.00000000 8.00000000 1.0
27.00000000 8.00000000 1.0
28.00000000 8.00000000 1.0
29.00000000 8.00000000 1.0
30.00000000 8.00000000 1.0
31.00000000 8.00000000 1.0
32.00000000 8.00000000 1.0
33.00000000 8.00000000 1.0
34.00000000 8.00000000 1.0
35.00000000 8.00000000 1.0
36.00000000 8.00000000 1.0
37.00000000 8.00000000 1.0
38.00000000 8.00000000 1.0
39.00000000 8.00000000 1.0
0.00000000 9.00000000 1.0
1.00000000 9.00000000 1.0
2.00000000 9.00000000 1.0
3.00000000 9.00000000 1.0
4.00000000 9.00000000 1.0
5.00000000 9.00000000 1.0
6.00000000 9.00000000 1.0
7.00000000 9.00000000 1.0
8.00000000 9.00000000 1.0
[...]
POINT_DATA 1600
VECTORS velocity double
0.00000000 0.00002700 0.0
0.00000026 -0.00002711 0.0
0.00000047 -0.00000589 0.0
0.00000061 0.00005306 0.0
0.00000065 0.00012307 0.0
0.00000061 0.00019065 0.0
0.00000051 0.00024957 0.0
0.00000036 0.00029721 0.0
0.00000018 0.00033263 0.0
-0.00000001 0.00035577 0.0
-0.00000022 0.00036705 0.0
-0.00000042 0.00036714 0.0
-0.00000062 0.00035692 0.0
-0.00000081 0.00033733 0.0
-0.00000098 0.00030943 0.0
-0.00000113 0.00027430 0.0
-0.00000126 0.00023303 0.0
-0.00000136 0.00018673 0.0
-0.00000144 0.00013651 0.0
-0.00000148 0.00008349 0.0
-0.00000150 0.00002877 0.0
-0.00000148 -0.00002654 0.0
-0.00000144 -0.00008134 0.0
-0.00000136 -0.00013451 0.0
-0.00000126 -0.00018493 0.0
-0.00000114 -0.00023147 0.0
-0.00000098 -0.00027299 0.0
-0.00000081 -0.00030835 0.0
-0.00000062 -0.00033643 0.0
-0.00000042 -0.00035613 0.0
-0.00000022 -0.00036639 0.0
-0.00000001 -0.00036623 0.0
0.00000019 -0.00035480 0.0
0.00000037 -0.00033143 0.0
0.00000051 -0.00029572 0.0
0.00000062 -0.00024779 0.0
0.00000066 -0.00018859 0.0
0.00000061 -0.00012081 0.0
0.00000047 -0.00005070 0.0
0.00000025 0.00000814 0.0
0.00000000 0.00008248 0.0
0.00009888 -0.00008303 0.0
0.00006884 0.00003906 0.0
-0.00015721 0.00029497 0.0
-0.00060935 0.00059230 0.0
-0.00128149 0.00088118 0.0
-0.00214826 0.00113597 0.0
-0.00317453 0.00134412 0.0
-0.00432079 0.00150026 0.0
-0.00554630 0.00160303 0.0
-0.00681101 0.00165347 0.0
-0.00807672 0.00165413 0.0
-0.00930789 0.00160851 0.0
-0.01047210 0.00152073 0.0
-0.01154044 0.00139534 0.0
-0.01248766 0.00123711 0.0
-0.01329229 0.00105099 0.0
-0.01393673 0.00084198 0.0
-0.01440726 0.00061513 0.0
-0.01469405 0.00037549 0.0
-0.01479112 0.00012810 0.0
-0.01469642 -0.00012199 0.0
-0.01441175 -0.00036971 0.0
-0.01394286 -0.00060998 0.0
-0.01329941 -0.00083770 0.0
-0.01249500 -0.00104771 0.0
-0.01154721 -0.00123488 0.0
-0.01047757 -0.00139407 0.0
-0.00931147 -0.00152024 0.0
-0.00807805 -0.00160850 0.0
-0.00680999 -0.00165425 0.0
-0.00554313 -0.00165333 0.0
-0.00431594 -0.00160224 0.0
-0.00316873 -0.00149852 0.0
-0.00214239 -0.00134122 0.0
-0.00127646 -0.00113184 0.0
-0.00060597 -0.00087597 0.0
-0.00015603 -0.00058633 0.0
0.00006772 -0.00028880 0.0
0.00009602 -0.00003358 0.0
0.00000000 0.00008256 0.0
0.00002803 -0.00008360 0.0
-0.00020569 0.00027277 0.0
-0.00078266 0.00087194 0.0
-0.00173866 0.00154830 0.0
-0.00306294 0.00220546 0.0
-0.00471568 0.00278871 0.0
-0.00663993 0.00326837 0.0
-0.00876960 0.00362993 0.0
-0.01103489 0.00386831 0.0
-0.01336583 0.00398442 0.0
-0.01569482 0.00398312 0.0
-0.01795825 0.00387193 0.0
-0.02009765 0.00366013 0.0
-0.02206051 0.00335819 0.0
-0.02380075 0.00297735 0.0
-0.02527906 0.00252930 0.0
-0.02646312 0.00202603 0.0
-0.02732764 0.00147966 0.0
-0.02785450 0.00090235 0.0
-0.02803272 0.00030632 0.0
-0.02785848 -0.00029622 0.0
-0.02733519 -0.00089301 0.0
-0.02647343 -0.00147174 0.0
-0.02529107 -0.00202006 0.0
-0.02381317 -0.00252561 0.0
-0.02207204 -0.00297601 0.0
-0.02010708 -0.00335903 0.0
-0.01796460 -0.00366272 0.0
-0.01569747 -0.00387563 0.0
-0.01336459 -0.00398712 0.0
-0.01103006 -0.00398786 0.0
-0.00876196 -0.00387035 0.0
-0.00663060 -0.00362987 0.0
-0.00470607 -0.00326576 0.0
-0.00305447 -0.00278344 0.0
-0.00173258 -0.00219785 0.0
-0.00077976 -0.00153915 0.0
-0.00020600 -0.00086256 0.0
0.00002546 -0.00026504 0.0
0.00000000 -0.00004293 0.0
-0.00009985 0.00004163 0.0
-0.00062312 0.00079604 0.0
-0.00162319 0.00187201 0.0
-0.00312136 0.00304647 0.0
-0.00509533 0.00417943 0.0
-0.00749188 0.00518526 0.0
-0.01023739 0.00601389 0.0
-0.01324621 0.00663874 0.0
-0.01642684 0.00704894 0.0
-0.01968668 0.00724426 0.0
-0.02293535 0.00723179 0.0
-0.02608715 0.00702374 0.0
-0.02906287 0.00663585 0.0
-0.03179096 0.00608628 0.0
-0.03420840 0.00539479 0.0
-0.03626129 0.00458219 0.0
-0.03790516 0.00366990 0.0
-0.03910521 0.00267971 0.0
-0.03983643 0.00163357 0.0
-0.04008369 0.00055357 0.0
-0.03984173 -0.00053817 0.0
-0.03911527 -0.00161947 0.0
-0.03791897 -0.00266804 0.0
-0.03627744 -0.00366159 0.0
-0.03422526 -0.00457779 0.0
-0.03180681 -0.00539446 0.0
-0.02907613 -0.00608971 0.0
-0.02609652 -0.00664233 0.0
-0.02293998 -0.00703217 0.0
-0.01968629 -0.00724082 0.0
-0.01642173 -0.00725241 0.0
-0.01323728 -0.00705480 0.0
-0.01022605 -0.00664111 0.0
-0.00747981 -0.00601199 0.0
-0.00508434 -0.00517892 0.0
-0.00311300 -0.00416919 0.0
-0.00161847 -0.00303368 0.0
-0.00062219 -0.00185884 0.0
-0.00010180 -0.00078543 0.0
0.00000000 -0.00030560 0.0
-0.00023979 0.00030423 0.0
-0.00108461 0.00164086 0.0
-0.00254157 0.00332896 0.0
-0.00460345 0.00510835 0.0
-0.00722843 0.00680441 0.0
-0.01034687 0.00830370 0.0
-0.01386909 0.00953611 0.0
-0.01769261 0.01046226 0.0
-0.02170828 0.01106462 0.0
-0.02580535 0.01134132 0.0
-0.02987528 0.01130172 0.0
-0.03381476 0.01096322 0.0
-0.03752791 0.01034900 0.0
-0.04092788 0.00948625 0.0
-0.04393798 0.00840489 0.0
-0.04649246 0.00713667 0.0
-0.04853701 0.00571445 0.0
-0.05002908 0.00417178 0.0
-0.05093808 0.00254257 0.0
-0.05124546 0.00086095 0.0
-0.05094481 -0.00083882 0.0
-0.05004191 -0.00252237 0.0
-0.04855470 -0.00415525 0.0
-0.04651333 -0.00570296 0.0
-0.04396004 -0.00713108 0.0
-0.04094905 -0.00840544 0.0
-0.03754624 -0.00949253 0.0
-0.03382861 -0.01035996 0.0
-0.02988353 -0.01097725 0.0
-0.02580752 -0.01131682 0.0
-0.02170462 -0.01135532 0.0
-0.01768403 -0.01107538 0.0
-0.01385715 -0.01046799 0.0
-0.01033349 -0.00953564 0.0
-0.00721570 -0.00829671 0.0
-0.00459326 -0.00679164 0.0
-0.00253523 -0.00509170 0.0
-0.00108253 -0.00331154 0.0
-0.00024124 -0.00162672 0.0
0.00000000 -0.00070156 0.0
-0.00037595 0.00070023 0.0
-0.00154687 0.00281177 0.0
-0.00347075 0.00525284 0.0
-0.00610475 0.00774234 0.0
-0.00938130 0.01008096 0.0
-0.01321043 0.01213284 0.0
-0.01748479 0.01381046 0.0
-0.02208532 0.01506279 0.0
-0.02688683 0.01586613 0.0
-0.03176281 0.01621730 0.0
-0.03658946 0.01612837 0.0
-0.04124890 0.01562266 0.0
-0.04563162 0.01473173 0.0
-0.04963833 0.01349297 0.0
-0.05318130 0.01194786 0.0
-0.05618523 0.01014060 0.0
-0.05858790 0.00811712 0.0
-0.06034055 0.00592443 0.0
-0.06140810 0.00361012 0.0
-0.06176928 0.00122213 0.0
-0.06141674 -0.00119136 0.0
-0.06035707 -0.00358204 0.0
-0.05861084 -0.00590148 0.0
-0.05621259 -0.00810122 0.0
-0.05321070 -0.01013297 0.0
-0.04966726 -0.01194888 0.0
-0.04565765 -0.01350213 0.0
-0.04126998 -0.01474763 0.0
-0.03660409 -0.01564314 0.0
-0.03177021 -0.01615070 0.0
-0.02688706 -0.01623848 0.0
-0.02207925 -0.01588319 0.0
-0.01747403 -0.01507322 0.0
-0.01319712 -0.01381255 0.0
-0.00936780 -0.01212602 0.0
-0.00609334 -0.01006610 0.0
-0.00346315 -0.00772189 0.0
-0.00154386 -0.00523083 0.0
-0.00037701 -0.00279357 0.0
0.00000000 -0.00122305 0.0
-0.00050424 0.00122184 0.0
-0.00199465 0.00430219 0.0
-0.00438375 0.00764194 0.0
-0.00759085 0.01094944 0.0
-0.01151881 0.01400892 0.0
-0.01605390 0.01666793 0.0
-0.02106875 0.01882531 0.0
-0.02642672 0.02042076 0.0
-0.03198663 0.02142604 0.0
-0.03760719 0.02183786 0.0
-0.04315089 0.02167207 0.0
-0.04848719 0.02095896 0.0
-0.05349506 0.01973960 0.0
-0.05806492 0.01806283 0.0
-0.06210002 0.01598295 0.0
-0.06551740 0.01355797 0.0
-0.06824853 0.01084826 0.0
-0.07023973 0.00791563 0.0
-0.07145239 0.00482278 0.0
-0.07186310 0.00163284 0.0
-0.07146374 -0.00159072 0.0
-0.07026151 -0.00478426 0.0
-0.06827901 -0.00788398 0.0
-0.06555416 -0.01082607 0.0
-0.06214019 -0.01354694 0.0
-0.05810541 -0.01598366 0.0
-0.05353286 -0.01807468 0.0
-0.04851964 -0.01976084 0.0
-0.04317597 -0.02098682 0.0
-0.03762367 -0.02170300 0.0
-0.03199423 -0.02186791 0.0
-0.02642615 -0.02145127 0.0
-0.02106162 -0.02043775 0.0
-0.01604253 -0.01883164 0.0
-0.01150591 -0.01666264 0.0
-0.00757912 -0.01399289 0.0
-0.00437543 -0.01092558 0.0
-0.00199099 -0.00761526 0.0
-0.00050501 -0.00427955 0.0
0.00000000 -0.00186289 0.0
-0.00062508 0.00186189 0.0
-0.00242618 0.00610329 0.0
-0.00527532 0.01049108 0.0
-0.00905433 0.01472845 0.0
-0.01363455 0.01858914 0.0
-0.01887586 0.02190924 0.0
-0.02462860 0.02457805 0.0
-0.03073698 0.02652914 0.0
-0.03704309 0.02773215 0.0
-0.04339088 0.02818566 0.0
-0.04962976 0.02791095 0.0
-0.05561764 0.02694684 0.0
-0.06122339 0.02534534 0.0
-0.06632866 0.02316810 0.0
-0.07082928 0.02048357 0.0
-0.07463611 0.01736480 0.0
-0.07767567 0.01388782 0.0
-0.07989046 0.01013042 0.0
-0.08123914 0.00617146 0.0
-0.08169667 0.00209036 0.0
-0.08125429 -0.00203310 0.0
-0.07991966 -0.00611889 0.0
-0.07771682 -0.01008682 0.0
-0.07468627 -0.01385662 0.0
-0.07088491 -0.01734830 0.0
-0.06638592 -0.02048265 0.0
-0.06127847 -0.02318214 0.0
-0.05566709 -0.02537222 0.0
-0.04967078 -0.02698313 0.0
-0.04342161 -0.02795217 0.0
-0.03706276 -0.02822677 0.0
-0.03074599 -0.02776804 0.0
-0.02462847 -0.02655526 0.0
-0.01886905 -0.02459106 0.0
-0.01362412 -0.02190756 0.0
-0.00904353 -0.01857348 0.0
-0.00526701 -0.01470211 0.0
-0.00242221 -0.01046006 0.0
-0.00062566 -0.00607610 0.0
0.00000000 -0.00261611 0.0
-0.00074051 0.00261537 0.0
-0.00284571 0.00820849 0.0
-0.00615124 0.01379661 0.0
-0.01050267 0.01907988 0.0
-0.01573887 0.02382534 0.0
-0.02169145 0.02786182 0.0
-0.02818641 0.03107302 0.0
-0.03504713 0.03338985 0.0
-0.04209784 0.03478286 0.0
-0.04916724 0.03525505 0.0
-0.05609173 0.03483544 0.0
-0.06271826 0.03357337 0.0
-0.06890649 0.03153357 0.0
-0.07453048 0.02879209 0.0
-0.07947984 0.02543294 0.0
-0.08366053 0.02154550 0.0
-0.08699524 0.01722252 0.0
-0.08942359 0.01255878 0.0
-0.09090228 0.00765015 0.0
-0.09140503 0.00259311 0.0
-0.09092263 -0.00251550 0.0
-0.08946295 -0.00757858 0.0
-0.08705102 -0.01249874 0.0
-0.08372913 -0.01717851 0.0
-0.07955687 -0.02152057 0.0
-0.07461111 -0.02542841 0.0
-0.06898586 -0.02880738 0.0
-0.06279185 -0.03156624 0.0
-0.05615573 -0.03361925 0.0
-0.04921887 -0.03488903 0.0
-0.04213564 -0.03531000 0.0
-0.03507101 -0.03483267 0.0
-0.02819770 -0.03342858 0.0
-0.02169268 -0.03109608 0.0
-0.01573350 -0.02786675 0.0
-0.01049454 -0.02381244 0.0
-0.00614395 -0.01905270 0.0
-0.00284190 -0.01376211 0.0
-0.00074104 -0.00817696 0.0
0.00000000 -0.00348031 0.0
-0.00085302 0.00347986 0.0
-0.00325989 0.01061536 0.0
-0.00702243 0.01755915 0.0
-0.01195089 0.02400834 0.0
-0.01785106 0.02972551 0.0
-0.02452478 0.03453554 0.0
-0.03177194 0.03832018 0.0
-0.03939341 0.04101132 0.0
-0.04719433 0.04258378 0.0
-0.05498741 0.04304813 0.0
-0.06259588 0.04244391 0.0
-0.06985595 0.04083344 0.0
-0.07661875 0.03829636 0.0
-0.08275163 0.03492497 0.0
-0.08813909 0.03082041 0.0
-0.09268325 0.02608965 0.0
-0.09630398 0.02084325 0.0
-0.09893897 0.01519377 0.0
-0.10054357 0.00925475 0.0
-0.10109069 0.00314024 0.0
-0.10057078 -0.00303542 0.0
-0.09899175 -0.00915760 0.0
-0.09637916 -0.01511133 0.0
-0.09277636 -0.02078131 0.0
-0.08824468 -0.02605225 0.0
-0.08286362 -0.03080947 0.0
-0.07673093 -0.03494007 0.0
-0.06996242 -0.03833475 0.0
-0.06269149 -0.04089018 0.0
-0.05506820 -0.04251231 0.0
-0.04725783 -0.04312037 0.0
-0.03943885 -0.04265165 0.0
-0.03180027 -0.04106715 0.0
-0.02453856 -0.03835779 0.0
-0.01785409 -0.03455122 0.0
-0.01194768 -0.02971884 0.0
-0.00701750 -0.02398288 0.0
-0.00325686 -0.01752275 0.0
-0.00085366 -0.01058016 0.0
0.00000000 -0.00445561 0.0
-0.00096507 0.00445552 0.0
-0.00367602 0.01332631 0.0
-0.00790163 0.02178476 0.0
-0.01341705 0.02952377 0.0
-0.01999421 0.03630266 0.0
-0.02740373 0.04194505 0.0
-0.03541769 0.04633415 0.0
-0.04381290 0.04940653 0.0
-0.05237416 0.05114504 0.0
-0.06089742 0.05157140 0.0
-0.06919246 0.05073895 0.0
-0.07708496 0.04872595 0.0
-0.08441806 0.04562946 0.0
-0.09105328 0.04156018 0.0
-0.09687100 0.03663813 0.0
-0.10177055 0.03098921 0.0
-0.10567006 0.02474276 0.0
-0.10850610 0.01802980 0.0
-0.11023336 0.01098201 0.0
-0.11082438 0.00373126 0.0
-0.11026935 -0.00359046 0.0
-0.10857607 -0.01085089 0.0
-0.10577013 -0.01791727 0.0
-0.10189521 -0.02465623 0.0
-0.09701346 -0.03093400 0.0
-0.09120595 -0.03661698 0.0
-0.08457305 -0.04157298 0.0
-0.07723462 -0.04567317 0.0
-0.06932995 -0.04879484 0.0
-0.06101723 -0.05082503 0.0
-0.05247251 -0.05166509 0.0
-0.04388804 -0.05123612 0.0
-0.03547001 -0.04948518 0.0
-0.02743564 -0.04639216 0.0
-0.02000985 -0.04197701 0.0
-0.01342167 -0.03630702 0.0
-0.00790080 -0.02950375 0.0
-0.00367460 -0.02174895 0.0
-0.00096603 -0.01328873 0.0
0.00000000 -0.00554452 0.0
-0.00107891 0.00554482 0.0
-0.00410124 0.01634864 0.0
-0.00880174 0.02648526 0.0
-0.01491977 0.03564179 0.0
-0.02219206 0.04357496 0.0
-0.03035641 0.05010940 0.0
-0.03915537 0.05513311 0.0
-0.04834013 0.05859129 0.0
-0.05767401 0.06047892 0.0
-0.06693551 0.06083289 0.0
-0.07592072 0.05972417 0.0
-0.08444509 0.05725032 0.0
-0.09234443 0.05352880 0.0
-0.09947536 0.04869111 0.0
-0.10571524 0.04287801 0.0
-0.11096182 0.03623578 0.0
-0.11513251 0.02891345 0.0
-0.11816375 0.02106105 0.0
-0.12001032 0.01282858 0.0
-0.12064479 0.00436573 0.0
-0.12005722 -0.00417802 0.0
-0.11825512 -0.01265299 0.0
-0.11526361 -0.02090878 0.0
-0.11112591 -0.02879394 0.0
-0.10590397 -0.03615594 0.0
-0.09967927 -0.04284167 0.0
-0.09255362 -0.04869863 0.0
-0.08464978 -0.05357701 0.0
-0.07611197 -0.05733265 0.0
-0.06710585 -0.05983116 0.0
-0.05781797 -0.06095297 0.0
-0.04845465 -0.06059945 0.0
-0.03923998 -0.05869985 0.0
-0.03041322 -0.05521891 0.0
-0.02222547 -0.05016476 0.0
-0.01493579 -0.04359670 0.0
-0.00880717 -0.03563237 0.0
-0.00410244 -0.02645368 0.0
-0.00108049 -0.01631068 0.0
0.00000000 -0.00675162 0.0
-0.00119657 0.00675235 0.0
-0.00454213 0.01969420 0.0
-0.00973496 0.03167809 0.0
-0.01647674 0.04238357 0.0
-0.02446711 0.05156533 0.0
-0.03340895 0.05905123 0.0
-0.04301344 0.06473760 0.0
-0.05300461 0.06858246 0.0
-0.06312320 0.07059751 0.0
-0.07312973 0.07083941 0.0
-0.08280664 0.06940108 0.0
-0.09195962 0.06640330 0.0
-0.10041804 0.06198722 0.0
-0.10803482 0.05630788 0.0
-0.11468564 0.04952884 0.0
-0.12026798 0.04181813 0.0
-0.12469988 0.03334534 0.0
-0.12791870 0.02427987 0.0
-0.12988011 0.01479000 0.0
-0.13055726 0.00504288 0.0
-0.12994024 -0.00479504 0.0
-0.12803601 -0.01455721 0.0
-0.12486867 -0.02407611 0.0
-0.12048010 -0.03318251 0.0
-0.11493089 -0.04170514 0.0
-0.10830161 -0.04947095 0.0
-0.10069406 -0.05630619 0.0
-0.09223256 -0.06203851 0.0
-0.08306503 -0.06650018 0.0
-0.07336368 -0.06953251 0.0
-0.06332511 -0.07099154 0.0
-0.05316968 -0.07075487 0.0
-0.04314004 -0.06872949 0.0
-0.03349864 -0.06486031 0.0
-0.02452441 -0.05913899 0.0
-0.01650847 -0.05161263 0.0
-0.00974928 -0.04239157 0.0
-0.00454723 -0.03165572 0.0
-0.00119912 -0.01965879 0.0
0.00000000 -0.00808337 0.0
-0.00131982 0.00808459 0.0
-0.00500467 0.02337904 0.0
-0.01071239 0.03738581 0.0
-0.01810409 0.04977527 0.0
-0.02683948 0.06030071 0.0
-0.03658402 0.06879578 0.0
-0.04701537 0.07516896 0.0
-0.05782882 0.07939591 0.0
-0.06874156 0.08151025 0.0
-0.07949582 0.08159367 0.0
-0.08986072 0.07976598 0.0
-0.09963304 0.07617562 0.0
-0.10863703 0.07099121 0.0
-0.11672341 0.06439426 0.0
-0.12376790 0.05657333 0.0
-0.12966939 0.04771961 0.0
-0.13434804 0.03802399 0.0
-0.13774347 0.02767530 0.0
-0.13981324 0.01685977 0.0
-0.14053164 0.00576127 0.0
-0.13988899 -0.00543769 0.0
-0.13789148 -0.01655472 0.0
-0.13456151 -0.02740608 0.0
-0.12993858 -0.03780545 0.0
-0.12408057 -0.04756315 0.0
-0.11706552 -0.05648600 0.0
-0.10899350 -0.06437821 0.0
-0.09998862 -0.07104339 0.0
-0.09020092 -0.07628787 0.0
-0.07980786 -0.07992557 0.0
-0.06901520 -0.08178420 0.0
-0.05805708 -0.08171299 0.0
-0.04719503 -0.07959154 0.0
-0.03671578 -0.07533956 0.0
-0.02692780 -0.06892697 0.0
-0.01815657 -0.06038386 0.0
-0.01073872 -0.04980942 0.0
-0.00501519 -0.03737925 0.0
-0.00132377 -0.02335021 0.0
0.00000000 -0.00954793 0.0
-0.00145024 0.00954970 0.0
-0.00549422 0.02742302 0.0
-0.01174399 0.04363559 0.0
-0.01981601 0.05784729 0.0
-0.02932637 0.06981107 0.0
-0.03989996 0.07936937 0.0
-0.05117846 0.08644746 0.0
-0.06282673 0.09104418 0.0
-0.07453763 0.09322114 0.0
-0.08603510 0.09309114 0.0
-0.09707569 0.09080657 0.0
-0.10744865 0.08654858 0.0
-0.11697488 0.08051744 0.0
-0.12550499 0.07292438 0.0
-0.13291688 0.06398521 0.0
-0.13911292 0.05391566 0.0
-0.14401732 0.04292839 0.0
-0.14757353 0.03123151 0.0
-0.14974215 0.01902839 0.0
-0.15049935 0.00651847 0.0
-0.14983592 -0.00610113 0.0
-0.14775699 -0.01863365 0.0
-0.14428252 -0.03088055 0.0
-0.13944836 -0.04263961 0.0
-0.13330809 -0.05370342 0.0
-0.12593523 -0.06385886 0.0
-0.11742597 -0.07288747 0.0
-0.10790200 -0.08056736 0.0
-0.09751334 -0.08667654 0.0
-0.08644083 -0.09099807 0.0
-0.07489804 -0.09332700 0.0
-0.06313211 -0.09347892 0.0
-0.05142352 -0.09130014 0.0
-0.04008415 -0.08667892 0.0
-0.02945384 -0.07955728 0.0
-0.01989505 -0.06994265 0.0
-0.01178595 -0.05791853 0.0
-0.00551194 -0.04365325 0.0
-0.00145610 -0.02740605 0.0
0.00000000 -0.01115499 0.0
-0.00158928 0.01115738 0.0
-0.00601567 0.03184941 0.0
-0.01283869 0.05045860 0.0
-0.02162482 0.06663343 0.0
-0.03194186 0.08012811 0.0
-0.04337028 0.09079780 0.0
-0.05551293 0.09859010 0.0
-0.06800253 0.10353377 0.0
-0.08050699 0.10572560 0.0
-0.09273241 0.10531656 0.0
-0.10442410 0.10249825 0.0
-0.11536577 0.09749025 0.0
-0.12537744 0.09052911 0.0
-0.13431232 0.08185926 0.0
-0.14205321 0.07172610 0.0
-0.14850861 0.06037106 0.0
-0.15360904 0.04802882 0.0
-0.15730369 0.03492616 0.0
-0.15955763 0.02128233 0.0
-0.16034978 0.00731062 0.0
-0.15967168 -0.00677923 0.0
-0.15752711 -0.02077822 0.0
-0.15393266 -0.03447500 0.0
-0.14891914 -0.04765313 0.0
-0.14253380 -0.06008876 0.0
-0.13484332 -0.07154933 0.0
-0.12593733 -0.08179347 0.0
-0.11593224 -0.09057245 0.0
-0.10497528 -0.09763350 0.0
-0.09324814 -0.10272521 0.0
-0.08097009 -0.10560504 0.0
-0.06839999 -0.10604902 0.0
-0.05583681 -0.10386332 0.0
-0.04361831 -0.09889742 0.0
-0.03211753 -0.09105806 0.0
-0.02173697 -0.08032322 0.0
-0.01290040 -0.06675510 0.0
-0.00604264 -0.05051101 0.0
-0.00159764 -0.03185105 0.0
0.00000000 -0.01291575 0.0
-0.00173828 0.01291884 0.0
-0.00657359 0.03668473 0.0
-0.01400457 0.05788958 0.0
-0.02354112 0.07616998 0.0
-0.03469691 0.09128389 0.0
-0.04700336 0.10310424 0.0
-0.06002124 0.11160799 0.0
-0.07334943 0.11686196 0.0
-0.08663057 0.11900674 0.0
-0.09955395 0.11823994 0.0
-0.11185566 0.11479996 0.0
-0.12331671 0.10895131 0.0
-0.13375953 0.10097193 0.0
-0.14304343 0.09114316 0.0
-0.15105953 0.07974220 0.0
-0.15772565 0.06703718 0.0
-0.16298142 0.05328460 0.0
-0.16678403 0.03872877 0.0
-0.16910471 0.02360301 0.0
-0.16992615 0.00813207 0.0
-0.16924099 -0.00746439 0.0
-0.16705132 -0.02296788 0.0
-0.16336935 -0.03815697 0.0
-0.15821914 -0.05280335 0.0
-0.15163933 -0.06666857 0.0
-0.14368690 -0.07950176 0.0
-0.13444163 -0.09103875 0.0
-0.12401113 -0.10100294 0.0
-0.11253622 -0.10910841 0.0
-0.10019605 -0.11506539 0.0
-0.08721269 -0.11858841 0.0
-0.07385457 -0.11940713 0.0
-0.06043818 -0.11727970 0.0
-0.04732749 -0.11200810 0.0
-0.03493065 -0.10345490 0.0
-0.02369360 -0.09156027 0.0
-0.01409064 -0.07635806 0.0
-0.00661212 -0.05798952 0.0
-0.00174982 -0.03671336 0.0
0.00000000 -0.01484292 0.0
-0.00189860 0.01484680 0.0
-0.00717247 0.04195860 0.0
-0.01524929 0.06596640 0.0
-0.02557415 0.08649485 0.0
-0.03759954 0.10330928 0.0
-0.05080229 0.11630700 0.0
-0.06469750 0.12550320 0.0
-0.07884849 0.13101295 0.0
-0.09287286 0.13303111 0.0
-0.10644481 0.13181189 0.0
-0.11929425 0.12764940 0.0
-0.13120332 0.12086037 0.0
-0.14200113 0.11176974 0.0
-0.15155750 0.10069953 0.0
-0.15977612 0.08796082 0.0
-0.16658797 0.07384902 0.0
-0.17194509 0.05864172 0.0
-0.17581535 0.04259902 0.0
-0.17817805 0.02596571 0.0
-0.17902088 0.00897490 0.0
-0.17833799 -0.00814729 0.0
-0.17612940 -0.02517647 0.0
-0.17240181 -0.04188456 0.0
-0.16717057 -0.05803458 0.0
-0.16046308 -0.07337606 0.0
-0.15232323 -0.08764160 0.0
-0.14281704 -0.10054494 0.0
-0.13203897 -0.11178101 0.0
-0.12011887 -0.12102851 0.0
-0.10722890 -0.12795536 0.0
-0.09358996 -0.13222734 0.0
-0.07947696 -0.13352013 0.0
-0.06522209 -0.13153458 0.0
-0.05121538 -0.12601481 0.0
-0.03790186 -0.11676842 0.0
-0.02577478 -0.10368735 0.0
-0.01536476 -0.08676807 0.0
-0.00722513 -0.06612915 0.0
-0.00191407 -0.04202442 0.0
0.00000000 -0.01695085 0.0
-0.00207169 0.01695564 0.0
-0.00781702 0.04770393 0.0
-0.01658048 0.07472986 0.0
-0.02773232 0.09764668 0.0
-0.04065518 0.11623213 0.0
-0.05476486 0.13041669 0.0