# vtk DataFile Version 4.0
2D velocity field
ASCII
DATASET STRUCTURED_GRID
DIMENSIONS 40 40 1
POINTS 1600 float
0.00000000 0.00000000 1.0
1.00000000 0.00000000 1.0
2.00000000 0.00000000 1.0
3.00000000 0.00000000 1.0
4.00000000 0.00000000 1.0
5.00000000 0.00000000 1.0
6.00000000 0.00000000 1.0
7.00000000 0.00000000 1.0
8.00000000 0.00000000 1.0
9.00000000 0.00000000 1.0
10.00000000 0.00000000 1.0
11.00000000 0.00000000 1.0
12.00000000 0.00000000 1.0
13.00000000 0.00000000 1.0
14.00000000 0.00000000 1.0
15.00000000 0.00000000 1.0
16.00000000 0.00000000 1.0
17.00000000 0.00000000 1.0
18.00000000 0.00000000 1.0
19.00000000 0.00000000 1.0
20.00000000 0.00000000 1.0
21.00000000 0.00000000 1.0
22.00000000 0.00000000 1.0
23.00000000 0.00000000 1.0
24.00000000 0.00000000 1.0
25.00000000 0.00000000 1.0
26.00000000 0.00000000 1.0
27.00000000 0.00000000 1.0
28.00000000 0.00000000 1.0
29.00000000 0.00000000 1.0
30.00000000 0.00000000 1.0
31.00000000 0.00000000 1.0
32.00000000 0.00000000 1.0
33.00000000 0.00000000 1.0
34.00000000 0.00000000 1.0
35.00000000 0.00000000 1.0
36.00000000 0.00000000 1.0
37.00000000 0.00000000 1.0
38.00000000 0.00000000 1.0
39.00000000 0.00000000 1.0
0.00000000 1.00000000 1.0
1.00000000 1.00000000 1.0
2.00000000 1.00000000 1.0
3.00000000 1.00000000 1.0
4.00000000 1.00000000 1.0
5.00000000 1.00000000 1.0
6.00000000 1.00000000 1.0
7.00000000 1.00000000 1.0
8.00000000 1.00000000 1.0
9.00000000 1.00000000 1.0
10.00000000 1.00000000 1.0
11.00000000 1.00000000 1.0
12.00000000 1.00000000 1.0
13.00000000 1.00000000 1.0
14.00000000 1.00000000 1.0
15.00000000 1.00000000 1.0
16.00000000 1.00000000 1.0
17.00000000 1.00000000 1.0
18.00000000 1.00000000 1.0
19.00000000 1.00000000 1.0
20.00000000 1.00000000 1.0
21.00000000 1.00000000 1.0
22.00000000 1.00000000 1.0
23.00000000 1.00000000 1.0
24.00000000 1.00000000 1.0
25.00000000 1.00000000 1.0
26.00000000 1.00000000 1.0
27.00000000 1.00000000 1.0
28.00000000 1.00000000 1.0
29.00000000 1.00000000 1.0
30.00000000 1.00000000 1.0
31.00000000 1.00000000 1.0
32.00000000 1.00000000 1.0
33.00000000 1.00000000 1.0
34.00000000 1.00000000 1.0
35.00000000 1.00000000 1.0
36.00000000 1.00000000 1.0
37.00000000 1.00000000 1.0
38.00000000 1.00000000 1.0
39.00000000 1.00000000 1.0
0.00000000 2.00000000 1.0
1.00000000 2.00000000 1.0
2.00000000 2.00000000 1.0
3.00000000 2.00000000 1.0
4.00000000 2.00000000 1.0
5.00000000 2.00000000 1.0
6.00000000 2.00000000 1.0
7.00000000 2.00000000 1.0
8.00000000 2.00000000 1.0
9.00000000 2.00000000 1.0
10.00000000 2.00000000 1.0
11.00000000 2.00000000 1.0
12.00000000 2.00000000 1.0
13.00000000 2.00000000 1.0
14.00000000 2.00000000 1.0
15.00000000 2.00000000 1.0
16.00000000 2.00000000 1.0
17.00000000 2.00000000 1.0
18.00000000 2.00000000 1.0
19.00000000 2.00000000 1.0
20.00000000 2.00000000 1.0
21.00000000 2.00000000 1.0
22.00000000 2.00000000 1.0
23.00000000 2.00000000 1.0
24.00000000 2.00000000 1.0
25.00000000 2.00000000 1.0
26.00000000 2.00000000 1.0
27.00000000 2.00000000 1.0
28.00000000 2.00000000 1.0
29.00000000 2.00000000 1.0
30.00000000 2.00000000 1.0
31.00000000 2.00000000 1.0
32.00000000 2.00000000 1.0
33.00000000 2.00000000 1.0
34.00000000 2.00000000 1.0
35.00000000 2.00000000 1.0
36.00000000 2.00000000 1.0
37.00000000 2.00000000 1.0
38.00000000 2.00000000 1.0
39.00000000 2.00000000 1.0
0.00000000 3.00000000 1.0
1.00000000 3.00000000 1.0
2.00000000 3.00000000 1.0
3.00000000 3.00000000 1.0
4.00000000 3.00000000 1.0
5.00000000 3.00000000 1.0
6.00000000 3.00000000 1.0
7.00000000 3.00000000 1.0
8.00000000 3.00000000 1.0
9.00000000 3.00000000 1.0
10.00000000 3.00000000 1.0
11.00000000 3.00000000 1.0
12.00000000 3.00000000 1.0
13.00000000 3.00000000 1.0
14.00000000 3.00000000 1.0
15.00000000 3.00000000 1.0
16.00000000 3.00000000 1.0
17.00000000 3.00000000 1.0
18.00000000 3.00000000 1.0
19.00000000 3.00000000 1.0
20.00000000 3.00000000 1.0
21.00000000 3.00000000 1.0
22.00000000 3.00000000 1.0
23.00000000 3.00000000 1.0
24.00000000 3.00000000 1.0
25.00000000 3.00000000 1.0
26.00000000 3.00000000 1.0
27.00000000 3.00000000 1.0
28.00000000 3.00000000 1.0
29.00000000 3.00000000 1.0
30.00000000 3.00000000 1.0
31.00000000 3.00000000 1.0
32.00000000 3.00000000 1.0
33.00000000 3.00000000 1.0
34.00000000 3.00000000 1.0
35.00000000 3.00000000 1.0
36.00000000 3.00000000 1.0
37.00000000 3.00000000 1.0
38.00000000 3.00000000 1.0
39.00000000 3.00000000 1.0
0.00000000 4.00000000 1.0
1.00000000 4.00000000 1.0
2.00000000 4.00000000 1.0
3.00000000 4.00000000 1.0
4.00000000 4.00000000 1.0
5.00000000 4.00000000 1.0
6.00000000 4.00000000 1.0
7.00000000 4.00000000 1.0
8.00000000 4.00000000 1.0
9.00000000 4.00000000 1.0
10.00000000 4.00000000 1.0
11.00000000 4.00000000 1.0
12.00000000 4.00000000 1.0
13.00000000 4.00000000 1.0
14.00000000 4.00000000 1.0
15.00000000 4.00000000 1.0
16.00000000 4.00000000 1.0
17.00000000 4.00000000 1.0
18.00000000 4.00000000 1.0
19.00000000 4.00000000 1.0
20.00000000 4.00000000 1.0
21.00000000 4.00000000 1.0
22.00000000 4.00000000 1.0
23.00000000 4.00000000 1.0
24.00000000 4.00000000 1.0
25.00000000 4.00000000 1.0
26.00000000 4.00000000 1.0
27.00000000 4.00000000 1.0
28.00000000 4.00000000 1.0
29.00000000 4.00000000 1.0
30.00000000 4.00000000 1.0
31.00000000 4.00000000 1.0
32.00000000 4.00000000 1.0
33.00000000 4.00000000 1.0
34.00000000 4.00000000 1.0
35.00000000 4.00000000 1.0
36.00000000 4.00000000 1.0
37.00000000 4.00000000 1.0
38.00000000 4.00000000 1.0
39.00000000 4.00000000 1.0
0.00000000 5.00000000 1.0
1.00000000 5.00000000 1.0
2.00000000 5.00000000 1.0
3.00000000 5.00000000 1.0
4.00000000 5.00000000 1.0
5.00000000 5.00000000 1.0
6.00000000 5.00000000 1.0
7.00000000 5.00000000 1.0
8.00000000 5.00000000 1.0
9.00000000 5.00000000 1.0
10.00000000 5.00000000 1.0
11.00000000 5.00000000 1.0
12.00000000 5.00000000 1.0
13.00000000 5.00000000 1.0
14.00000000 5.00000000 1.0
15.00000000 5.00000000 1.0
16.00000000 5.00000000 1.0
17.00000000 5.00000000 1.0
18.00000000 5.00000000 1.0
19.00000000 5.00000000 1.0
20.00000000 5.00000000 1.0
21.00000000 5.00000000 1.0
22.00000000 5.00000000 1.0
23.00000000 5.00000000 1.0
24.00000000 5.00000000 1.0
25.00000000 5.00000000 1.0
26.00000000 5.00000000 1.0
27.00000000 5.00000000 1.0
28.00000000 5.00000000 1.0
29.00000000 5.00000000 1.0
30.00000000 5.00000000 1.0
31.00000000 5.00000000 1.0
32.00000000 5.00000000 1.0
33.00000000 5.00000000 1.0
34.00000000 5.00000000 1.0
35.00000000 5.00000000 1.0
36.00000000 5.00000000 1.0
37.00000000 5.00000000 1.0
38.00000000 5.00000000 1.0
39.00000000 5.00000000 1.0
0.00000000 6.00000000 1.0
1.00000000 6.00000000 1.0
2.00000000 6.00000000 1.0
3.00000000 6.00000000 1.0
4.00000000 6.00000000 1.0
5.00000000 6.00000000 1.0
6.00000000 6.00000000 1.0
7.00000000 6.00000000 1.0
8.00000000 6.00000000 1.0
9.00000000 6.00000000 1.0
10.00000000 6.00000000 1.0
11.00000000 6.00000000 1.0
12.00000000 6.00000000 1.0
13.00000000 6.00000000 1.0
14.00000000 6.00000000 1.0
15.00000000 6.00000000 1.0
16.00000000 6.00000000 1.0
17.00000000 6.00000000 1.0
18.00000000 6.00000000 1.0
19.00000000 6.00000000 1.0
20.00000000 6.00000000 1.0
21.00000000 6.00000000 1.0
22.00000000 6.00000000 1.0
23.00000000 6.00000000 1.0
24.00000000 6.00000000 1.0
25.00000000 6.00000000 1.0
26.00000000 6.00000000 1.0
27.00000000 6.00000000 1.0
28.00000000 6.00000000 1.0
29.00000000 6.00000000 1.0
30.00000000 6.00000000 1.0
31.00000000 6.00000000 1.0
32.00000000 6.00000000 1.0
33.00000000 6.00000000 1.0
34.00000000 6.00000000 1.0
35.00000000 6.00000000 1.0
36.00000000 6.00000000 1.0
37.00000000 6.00000000 1.0
38.00000000 6.00000000 1.0
39.00000000 6.00000000 1.0
0.00000000 7.00000000 1.0
1.00000000 7.00000000 1.0
2.00000000 7.00000000 1.0
3.00000000 7.00000000 1.0
4.00000000 7.00000000 1.0
5.00000000 7.00000000 1.0
6.00000000 7.00000000 1.0
7.00000000 7.00000000 1.0
8.00000000 7.00000000 1.0
9.00000000 7.00000000 1.0
10.00000000 7.00000000 1.0
11.00000000 7.00000000 1.0
12.00000000 7.00000000 1.0
13.00000000 7.00000000 1.0
14.00000000 7.00000000 1.0
15.00000000 7.00000000 1.0
16.00000000 7.00000000 1.0
17.00000000 7.00000000 1.0
18.00000000 7.00000000 1.0
19.00000000 7.00000000 1.0
20.00000000 7.00000000 1.0
21.00000000 7.00000000 1.0
22.00000000 7.00000000 1.0
23.00000000 7.00000000 1.0
24.00000000 7.00000000 1.0
25.00000000 7.00000000 1.0
26.00000000 7.00000000 1.0
27.00000000 7.00000000 1.0
28.00000000 7.00000000 1.0
29.00000000 7.00000000 1.0
30.00000000 7.00000000 1.0
31.00000000 7.00000000 1.0
32.00000000 7.00000000 1.0
33.00000000 7.00000000 1.0
34.00000000 7.00000000 1.0
35.00000000 7.00000000 1.0
36.00000000 7.00000000 1.0
37.00000000 7.00000000 1.0
38.00000000 7.00000000 1.0
39.00000000 7.00000000 1.0
0.00000000 8.00000000 1.0
1.00000000 8.00000000 1.0
2.00000000 8.00000000 1.0
3.00000000 8.00000000 1.0
4.00000000 8.00000000 1.0
5.00000000 8.00000000 1.0
6.00000000 8.00000000 1.0
7.00000000 8.00000000 1.0
8.00000000 8.00000000 1.0
9.00000000 8.00000000 1.0
10.00000000 8.00000000 1.0
11.00000000 8.00000000 1.0
12.00000000 8.00000000 1.0
13.00000000 8.00000000 1.0
14.00000000 8.00000000 1.0
15.00000000 8.00000000 1.0
16.00000000 8.00000000 1.0
17.00000000 8.00000000 1.0
18.00000000 8.00000000 1.0
19.00000000 8.00000000 1.0
20.00000000 8.00000000 1.0
21.00000000 8.00000000 1.0
22.00000000 8.00000000 1.0
23.00000000 8.00000000 1.0
24.00000000 8.00000000 1.0
25.00000000 8.00000000 1.0
26.00000000 8.00000000 1.0
27.00000000 8.00000000 1.0
28.00000000 8.00000000 1.0
29.00000000 8.00000000 1.0
30.00000000 8.00000000 1.0
31.00000000 8.00000000 1.0
32.00000000 8.00000000 1.0
33.00000000 8.00000000 1.0
34.00000000 8.00000000 1.0
35.00000000 8.00000000 1.0
36.00000000 8.00000000 1.0
37.00000000 8.00000000 1.0
38.00000000 8.00000000 1.0
39.00000000 8.00000000 1.0
0.00000000 9.00000000 1.0
1.00000000 9.00000000 1.0
2.00000000 9.00000000 1.0
3.00000000 9.00000000 1.0
4.00000000 9.00000000 1.0
5.00000000 9.00000000 1.0
6.00000000 9.00000000 1.0
7.00000000 9.00000000 1.0
8.00000000 9.00000000 1.0
[...]
POINT_DATA 1600
VECTORS velocity double
0.00000000 0.00003204 0.0
0.00000027 -0.00003217 0.0
0.00000052 -0.00001139 0.0
0.00000068 0.00005211 0.0
0.00000073 0.00012864 0.0
0.00000070 0.00020308 0.0
0.00000059 0.00026843 0.0
0.00000043 0.00032164 0.0
0.00000024 0.00036157 0.0
0.00000003 0.00038806 0.0
-0.00000019 0.00040149 0.0
-0.00000041 0.00040255 0.0
-0.00000062 0.00039214 0.0
-0.00000083 0.00037127 0.0
-0.00000101 0.00034108 0.0
-0.00000118 0.00030273 0.0
-0.00000132 0.00025743 0.0
-0.00000143 0.00020643 0.0
-0.00000151 0.00015097 0.0
-0.00000156 0.00009230 0.0
-0.00000157 0.00003170 0.0
-0.00000156 -0.00002958 0.0
-0.00000151 -0.00009027 0.0
-0.00000143 -0.00014909 0.0
-0.00000132 -0.00020477 0.0
-0.00000118 -0.00025602 0.0
-0.00000102 -0.00030156 0.0
-0.00000083 -0.00034014 0.0
-0.00000063 -0.00037051 0.0
-0.00000041 -0.00039146 0.0
-0.00000019 -0.00040187 0.0
0.00000004 -0.00040070 0.0
0.00000025 -0.00038706 0.0
0.00000044 -0.00036028 0.0
0.00000059 -0.00032002 0.0
0.00000070 -0.00026647 0.0
0.00000073 -0.00020084 0.0
0.00000068 -0.00012620 0.0
0.00000051 -0.00004963 0.0
0.00000026 0.00001368 0.0
0.00000000 0.00009754 0.0
0.00010780 -0.00009815 0.0
0.00008421 0.00002676 0.0
-0.00015102 0.00030294 0.0
-0.00063340 0.00062798 0.0
-0.00135811 0.00094621 0.0
-0.00229858 0.00122871 0.0
-0.00341706 0.00146111 0.0
-0.00467062 0.00163698 0.0
-0.00601463 0.00175442 0.0
-0.00740497 0.00181425 0.0
-0.00879933 0.00181895 0.0
-0.01015812 0.00177216 0.0
-0.01144509 0.00167823 0.0
-0.01262773 0.00154204 0.0
-0.01367753 0.00136882 0.0
-0.01457016 0.00116401 0.0
-0.01528561 0.00093319 0.0
-0.01580822 0.00068203 0.0
-0.01612674 0.00041626 0.0
-0.01623435 0.00014163 0.0
-0.01612870 -0.00013606 0.0
-0.01581188 -0.00041104 0.0
-0.01529047 -0.00067746 0.0
-0.01457555 -0.00092952 0.0
-0.01368266 -0.00116137 0.0
-0.01263183 -0.00136723 0.0
-0.01144744 -0.00154139 0.0
-0.01015820 -0.00167827 0.0
-0.00879686 -0.00177257 0.0
-0.00740000 -0.00181932 0.0
-0.00600751 -0.00181415 0.0
-0.00466200 -0.00175345 0.0
-0.00340786 -0.00163481 0.0
-0.00228983 -0.00145756 0.0
-0.00135085 -0.00122379 0.0
-0.00062849 -0.00094013 0.0
-0.00014896 -0.00062120 0.0
0.00008346 -0.00029616 0.0
0.00010503 -0.00002096 0.0
0.00000000 0.00010323 0.0
0.00003280 -0.00010438 0.0
-0.00020953 0.00026909 0.0
-0.00082382 0.00091724 0.0
-0.00185286 0.00165702 0.0
-0.00328766 0.00238101 0.0
-0.00508661 0.00302765 0.0
-0.00718854 0.00356305 0.0
-0.00952170 0.00397013 0.0
-0.01200962 0.00424235 0.0
-0.01457527 0.00437989 0.0
-0.01714372 0.00438740 0.0
-0.01964415 0.00427259 0.0
-0.02201117 0.00404524 0.0
-0.02418573 0.00371660 0.0
-0.02611583 0.00329892 0.0
-0.02775694 0.00280511 0.0
-0.02907228 0.00224853 0.0
-0.03003305 0.00164280 0.0
-0.03061854 0.00100175 0.0
-0.03081619 0.00033928 0.0
-0.03062165 -0.00033060 0.0
-0.03003885 -0.00099384 0.0
-0.02907995 -0.00163636 0.0
-0.02776539 -0.00224408 0.0
-0.02612380 -0.00280296 0.0
-0.02419194 -0.00329909 0.0
-0.02201449 -0.00371884 0.0
-0.01964373 -0.00404903 0.0
-0.01713912 -0.00427718 0.0
-0.01456654 -0.00439189 0.0
-0.01199737 -0.00438332 0.0
-0.00950698 -0.00424384 0.0
-0.00717282 -0.00396896 0.0
-0.00507154 -0.00355883 0.0
-0.00327490 -0.00302043 0.0
-0.00184373 -0.00237130 0.0
-0.00081906 -0.00164587 0.0
-0.00020896 -0.00090626 0.0
0.00003048 -0.00026040 0.0
0.00000000 -0.00002731 0.0
-0.00010597 0.00002587 0.0
-0.00066388 0.00082700 0.0
-0.00174021 0.00199356 0.0
-0.00336214 0.00327895 0.0
-0.00550841 0.00452728 0.0
-0.00812306 0.00564231 0.0
-0.01112703 0.00656702 0.0
-0.01442726 0.00727036 0.0
-0.01792364 0.00773873 0.0
-0.02151415 0.00797040 0.0
-0.02509872 0.00797197 0.0
-0.02858198 0.00775585 0.0
-0.03187533 0.00733859 0.0
-0.03489840 0.00673967 0.0
-0.03758010 0.00598062 0.0
-0.03985938 0.00508439 0.0
-0.04168570 0.00407485 0.0
-0.04301944 0.00297654 0.0
-0.04383204 0.00181435 0.0
-0.04410621 0.00061345 0.0
-0.04383599 -0.00060082 0.0
-0.04302680 -0.00180303 0.0
-0.04169546 -0.00296771 0.0
-0.03987014 -0.00406940 0.0
-0.03759027 -0.00508282 0.0
-0.03490635 -0.00598301 0.0
-0.03187962 -0.00674558 0.0
-0.02858151 -0.00734714 0.0
-0.02509291 -0.00776578 0.0
-0.02150304 -0.00798176 0.0
-0.01790794 -0.00797843 0.0
-0.01440829 -0.00774348 0.0
-0.01110659 -0.00727067 0.0
-0.00810322 -0.00656221 0.0
-0.00549121 -0.00563243 0.0
-0.00334929 -0.00451322 0.0
-0.00173267 -0.00326250 0.0
-0.00066155 -0.00197737 0.0
-0.00010751 -0.00081444 0.0
0.00000000 -0.00030812 0.0
-0.00025931 0.00030658 0.0
-0.00116969 0.00173738 0.0
-0.00274700 0.00357088 0.0
-0.00498720 0.00551915 0.0
-0.00784770 0.00738778 0.0
-0.01125476 0.00904936 0.0
-0.01511189 0.01042415 0.0
-0.01930778 0.01146625 0.0
-0.02372307 0.01215401 0.0
-0.02823586 0.01248320 0.0
-0.03272610 0.01246221 0.0
-0.03707890 0.01210865 0.0
-0.04118713 0.01144683 0.0
-0.04495333 0.01050587 0.0
-0.04829105 0.00931834 0.0
-0.05112590 0.00791924 0.0
-0.05339624 0.00634520 0.0
-0.05505364 0.00463394 0.0
-0.05606321 0.00282392 0.0
-0.05640380 0.00095404 0.0
-0.05606813 -0.00093649 0.0
-0.05506284 -0.00280832 0.0
-0.05340852 -0.00462203 0.0
-0.05113962 -0.00633830 0.0
-0.04830430 -0.00791814 0.0
-0.04496418 -0.00932313 0.0
-0.04119383 -0.01051593 0.0
-0.03708007 -0.01146090 0.0
-0.03272098 -0.01212487 0.0
-0.02822439 -0.01247834 0.0
-0.02370596 -0.01249686 0.0
-0.01928646 -0.01216298 0.0
-0.01508840 -0.01146874 0.0
-0.01123147 -0.01041914 0.0
-0.00782702 -0.00903688 0.0
-0.00497119 -0.00736906 0.0
-0.00273694 -0.00549674 0.0
-0.00116572 -0.00354859 0.0
-0.00026019 -0.00171998 0.0
0.00000000 -0.00073556 0.0
-0.00040915 0.00073405 0.0
-0.00167761 0.00300584 0.0
-0.00376711 0.00566038 0.0
-0.00663438 0.00838642 0.0
-0.01020864 0.01096204 0.0
-0.01439401 0.01323474 0.0
-0.01907484 0.01510497 0.0
-0.02412190 0.01651331 0.0
-0.02939842 0.01743053 0.0
-0.03476540 0.01785018 0.0
-0.04008609 0.01778290 0.0
-0.04522962 0.01725218 0.0
-0.05007383 0.01629103 0.0
-0.05450744 0.01493947 0.0
-0.05843170 0.01324260 0.0
-0.06176154 0.01124909 0.0
-0.06442644 0.00901010 0.0
-0.06637097 0.00657846 0.0
-0.06755516 0.00400811 0.0
-0.06795481 0.00135369 0.0
-0.06756156 -0.00132974 0.0
-0.06638302 -0.00398686 0.0
-0.06444275 -0.00656230 0.0
-0.06178017 -0.00900088 0.0
-0.05845040 -0.01124791 0.0
-0.05452388 -0.01324964 0.0
-0.05008587 -0.01495395 0.0
-0.04523553 -0.01631124 0.0
-0.04008478 -0.01727562 0.0
-0.03475658 -0.01780654 0.0
-0.02938269 -0.01787075 0.0
-0.02410070 -0.01744496 0.0
-0.01905034 -0.01651909 0.0
-0.01436886 -0.01510062 0.0
-0.01018560 -0.01322013 0.0
-0.00661593 -0.01093873 0.0
-0.00375497 -0.00835770 0.0
-0.00167228 -0.00563128 0.0
-0.00040951 -0.00298276 0.0
0.00000000 -0.00130104 0.0
-0.00055031 0.00129967 0.0
-0.00216894 0.00462447 0.0
-0.00476720 0.00825864 0.0
-0.00826015 0.01187937 0.0
-0.01254465 0.01524654 0.0
-0.01749898 0.01818906 0.0
-0.02298588 0.02059187 0.0
-0.02885720 0.02238464 0.0
-0.03495901 0.02353235 0.0
-0.04113641 0.02402758 0.0
-0.04723784 0.02388433 0.0
-0.05311870 0.02313305 0.0
-0.05864429 0.02181662 0.0
-0.06369205 0.01998723 0.0
-0.06815328 0.01770384 0.0
-0.07193445 0.01503025 0.0
-0.07495799 0.01203364 0.0
-0.07716300 0.00878347 0.0
-0.07850557 0.00535068 0.0
-0.07895907 0.00180719 0.0
-0.07851432 -0.00177449 0.0
-0.07717962 -0.00532155 0.0
-0.07498082 -0.00876110 0.0
-0.07196117 -0.01202053 0.0
-0.06818119 -0.01502789 0.0
-0.06371828 -0.01771255 0.0
-0.05866614 -0.02000609 0.0
-0.05313391 -0.02184347 0.0
-0.04724483 -0.02316470 0.0
-0.04113451 -0.02391686 0.0
-0.03494854 -0.02405672 0.0
-0.02883949 -0.02355401 0.0
-0.02296316 -0.02239543 0.0
-0.01747412 -0.02058965 0.0
-0.01252082 -0.01817344 0.0
-0.00824032 -0.01521923 0.0
-0.00475362 -0.01184440 0.0
-0.00216257 -0.00822233 0.0
-0.00055026 -0.00459507 0.0
0.00000000 -0.00199607 0.0
-0.00068266 0.00199492 0.0
-0.00263985 0.00658166 0.0
-0.00573796 0.01135675 0.0
-0.00985084 0.01599225 0.0
-0.01484099 0.02023669 0.0
-0.02055818 0.02390624 0.0
-0.02684121 0.02687490 0.0
-0.03352151 0.02906494 0.0
-0.04042735 0.03043818 0.0
-0.04738815 0.03098837 0.0
-0.05423844 0.03073462 0.0
-0.06082131 0.02971592 0.0
-0.06699121 0.02798652 0.0
-0.07261615 0.02561217 0.0
-0.07757940 0.02266708 0.0
-0.08178066 0.01923151 0.0
-0.08513695 0.01538994 0.0
-0.08758316 0.01122968 0.0
-0.08907239 0.00683991 0.0
-0.08957618 0.00231099 0.0
-0.08908469 -0.00226598 0.0
-0.08760671 -0.00679953 0.0
-0.08516973 -0.01119809 0.0
-0.08181984 -0.01537042 0.0
-0.07762165 -0.01922609 0.0
-0.07265788 -0.02267632 0.0
-0.06702894 -0.02563503 0.0
-0.06085201 -0.02802041 0.0
-0.05425981 -0.02975690 0.0
-0.04739890 -0.03077777 0.0
-0.04042735 -0.03102827 0.0
-0.03351183 -0.03046953 0.0
-0.02682403 -0.02908323 0.0
-0.02053657 -0.02687711 0.0
-0.01481853 -0.02389148 0.0
-0.00983107 -0.02020669 0.0
-0.00572378 -0.01595169 0.0
-0.00263284 -0.01131327 0.0
-0.00068232 -0.00654559 0.0
0.00000000 -0.00281403 0.0
-0.00080795 0.00281316 0.0
-0.00309336 0.00886707 0.0
-0.00668248 0.01494587 0.0
-0.01140952 0.02071929 0.0
-0.01710185 0.02592903 0.0
-0.02357892 0.03038331 0.0
-0.03065366 0.03394964 0.0
-0.03813545 0.03654673 0.0
-0.04583379 0.03813653 0.0
-0.05356211 0.03871669 0.0
-0.06114135 0.03831386 0.0
-0.06840309 0.03697766 0.0
-0.07519210 0.03477553 0.0
-0.08136838 0.03178846 0.0
-0.08680865 0.02810735 0.0
-0.09140736 0.02383022 0.0
-0.09507743 0.01906001 0.0
-0.09775065 0.01390291 0.0
-0.09937799 0.00846724 0.0
-0.09992969 0.00286268 0.0
-0.09939537 -0.00280030 0.0
-0.09778411 -0.00841079 0.0
-0.09512447 -0.01385773 0.0
-0.09146452 -0.01903037 0.0
-0.08687173 -0.02381888 0.0
-0.08143283 -0.02811521 0.0
-0.07525339 -0.03181447 0.0
-0.06845712 -0.03481667 0.0
-0.06118484 -0.03702919 0.0
-0.05359287 -0.03836974 0.0
-0.04585098 -0.03877015 0.0
-0.03813969 -0.03818082 0.0
-0.03064697 -0.03657596 0.0
-0.02356449 -0.03395959 0.0
-0.01708367 -0.03037230 0.0
-0.01139177 -0.02589858 0.0
-0.00666887 -0.02067459 0.0
-0.00308626 -0.01489588 0.0
-0.00080747 -0.00882438 0.0
0.00000000 -0.00375074 0.0
-0.00092849 0.00375020 0.0
-0.00353530 0.01147388 0.0
-0.00760978 0.01902034 0.0
-0.01294795 0.02605747 0.0
-0.01934178 0.03232286 0.0
-0.02657911 0.03762064 0.0
-0.03444537 0.04181590 0.0
-0.04272643 0.04482779 0.0
-0.05121194 0.04662204 0.0
-0.05969881 0.04720355 0.0
-0.06799437 0.04660943 0.0
-0.07591921 0.04490249 0.0
-0.08330933 0.04216565 0.0
-0.09001784 0.03849697 0.0
-0.09591619 0.03400569 0.0
-0.10089487 0.02880890 0.0
-0.10486391 0.02302905 0.0
-0.10775307 0.01679206 0.0
-0.10951192 0.01022609 0.0
-0.11010987 0.00346063 0.0
-0.10953617 -0.00337400 0.0
-0.10779998 -0.01014698 0.0
-0.10493040 -0.01672730 0.0
-0.10097661 -0.02298417 0.0
-0.09600790 -0.02878759 0.0
-0.09011372 -0.03400939 0.0
-0.08340349 -0.03852470 0.0
-0.07600616 -0.04221400 0.0
-0.06806946 -0.04496589 0.0
-0.05975864 -0.04668056 0.0
-0.05125469 -0.04727410 0.0
-0.04275201 -0.04668350 0.0
-0.03445544 -0.04487253 0.0
-0.02657688 -0.04183815 0.0
-0.01933164 -0.03761755 0.0
-0.01293481 -0.03229541 0.0
-0.00759827 -0.02601112 0.0
-0.00352882 -0.01896534 0.0
-0.00092806 -0.01142514 0.0
0.00000000 -0.00480443 0.0
-0.00104660 0.00480427 0.0
-0.00397239 0.01439967 0.0
-0.00853122 0.02357917 0.0
-0.01448176 0.03200800 0.0
-0.02158017 0.03942127 0.0
-0.02958161 0.04562207 0.0
-0.03824257 0.05047687 0.0
-0.04732407 0.05390929 0.0
-0.05659488 0.05589285 0.0
-0.06583482 0.05644350 0.0
-0.07483760 0.05561221 0.0
-0.08341319 0.05347808 0.0
-0.09138959 0.05014205 0.0
-0.09861412 0.04572151 0.0
-0.10495416 0.04034573 0.0
-0.11029751 0.03415225 0.0
-0.11455247 0.02728401 0.0
-0.11764777 0.01988736 0.0
-0.11953236 0.01211069 0.0
-0.12017529 0.00410356 0.0
-0.11956558 -0.00398371 0.0
-0.11771223 -0.01200032 0.0
-0.11464438 -0.01979516 0.0
-0.11041146 -0.02721708 0.0
-0.10508356 -0.03411550 0.0
-0.09875158 -0.04034136 0.0
-0.09152752 -0.04574876 0.0
-0.08354431 -0.05019721 0.0
-0.07495553 -0.05355467 0.0
-0.06593457 -0.05570153 0.0
-0.05667326 -0.05653541 0.0
-0.04737999 -0.05597677 0.0
-0.03827710 -0.05397541 0.0
-0.02959783 -0.05051742 0.0
-0.02158281 -0.04563257 0.0
-0.01447649 -0.03940173 0.0
-0.00852380 -0.03196381 0.0
-0.00396748 -0.02352166 0.0
-0.00104649 -0.01434612 0.0
0.00000000 -0.00597561 0.0
-0.00116446 0.00597587 0.0
-0.00441131 0.01764652 0.0
-0.00945866 0.02862652 0.0
-0.01602764 0.03857698 0.0
-0.02383786 0.04723150 0.0
-0.03261052 0.05439473 0.0
-0.04207183 0.05993818 0.0
-0.05195668 0.06379413 0.0
-0.06201207 0.06594824 0.0
-0.07200027 0.06643170 0.0
-0.08170139 0.06531333 0.0
-0.09091528 0.06269197 0.0
-0.09946283 0.05868960 0.0
-0.10718669 0.05344537 0.0
-0.11395148 0.04711052 0.0
-0.11964362 0.03984439 0.0
-0.12417096 0.03181134 0.0
-0.12746223 0.02317864 0.0
-0.12946661 0.01411506 0.0
-0.13015326 0.00479021 0.0
-0.12951110 -0.00462587 0.0
-0.12754880 -0.01396262 0.0
-0.12429492 -0.02304903 0.0
-0.11979833 -0.03171367 0.0
-0.11412872 -0.03978511 0.0
-0.10737719 -0.04709288 0.0
-0.09965691 -0.05346905 0.0
-0.09110347 -0.05875065 0.0
-0.08187513 -0.06278301 0.0
-0.07215252 -0.06542413 0.0
-0.06213788 -0.06655005 0.0
-0.05205358 -0.06606108 0.0
-0.04214000 -0.06388900 0.0
-0.03265269 -0.06000472 0.0
-0.02385901 -0.05442625 0.0
-0.01603426 -0.04722649 0.0
-0.00945776 -0.03854031 0.0
-0.00440914 -0.02857028 0.0
-0.00116499 -0.01759027 0.0
0.00000000 -0.00726679 0.0
-0.00128399 0.00726752 0.0
-0.00485832 0.02122086 0.0
-0.01040347 0.03417167 0.0
-0.01760185 0.04577536 0.0
-0.02613508 0.05576473 0.0
-0.03568884 0.06394849 0.0
-0.04595756 0.07020691 0.0
-0.05664879 0.07448536 0.0
-0.06748699 0.07678643 0.0
-0.07821662 0.07716133 0.0
-0.08860441 0.07570113 0.0
-0.09844083 0.07252839 0.0
-0.10754079 0.06778955 0.0
-0.11574364 0.06164822 0.0
-0.12291275 0.05427964 0.0
-0.12893471 0.04586635 0.0
-0.13371828 0.03659492 0.0
-0.13719346 0.02665381 0.0
-0.13931050 0.01623211 0.0
-0.14003926 0.00551896 0.0
-0.13936874 -0.00529639 0.0
-0.13730702 -0.01602434 0.0
-0.13388149 -0.02647456 0.0
-0.12913945 -0.03645571 0.0
-0.12314893 -0.04577563 0.0
-0.11599977 -0.05424205 0.0
-0.10780469 -0.06166412 0.0
-0.09870043 -0.06785492 0.0
-0.08884848 -0.07263496 0.0
-0.07843561 -0.07583700 0.0
-0.06767371 -0.07731195 0.0
-0.05679893 -0.07693585 0.0
-0.04607003 -0.07461790 0.0
-0.03576579 -0.07030897 0.0
-0.02618156 -0.06401047 0.0
-0.01762515 -0.05578290 0.0
-0.01041204 -0.04575343 0.0
-0.00486032 -0.03412200 0.0
-0.00128556 -0.02116503 0.0
0.00000000 -0.00868232 0.0
-0.00140692 0.00868358 0.0
-0.00531914 0.02513308 0.0
-0.01137619 0.04022871 0.0
-0.01921947 0.05361864 0.0
-0.02849037 0.06503563 0.0
-0.03883700 0.07429513 0.0
-0.04992032 0.08129022 0.0
-0.06141930 0.08598434 0.0
-0.07303521 0.08840235 0.0
-0.08449469 0.08862081 0.0
-0.09555169 0.08675813 0.0
-0.10598841 0.08296511 0.0
-0.11561524 0.07741638 0.0
-0.12427001 0.07030299 0.0
-0.13181671 0.06182634 0.0
-0.13814389 0.05219352 0.0
-0.14316294 0.04161397 0.0
-0.14680650 0.03029737 0.0
-0.14902698 0.01845259 0.0
-0.14979557 0.00628756 0.0
-0.14910155 -0.00599040 0.0
-0.14695216 -0.01817374 0.0
-0.14337290 -0.03005382 0.0
-0.13840839 -0.04142023 0.0
-0.13212354 -0.05206048 0.0
-0.12460515 -0.06176044 0.0
-0.11596366 -0.07030562 0.0
-0.10633494 -0.07748363 0.0
-0.09588197 -0.08308792 0.0
-0.08479612 -0.08692285 0.0
-0.07329782 -0.08881025 0.0
-0.06163645 -0.08859722 0.0
-0.05008921 -0.08616514 0.0
-0.03895881 -0.08143936 0.0
-0.02857005 -0.07439924 0.0
-0.01926506 -0.06508788 0.0
-0.01139772 -0.05362077 0.0
-0.00532702 -0.04019270 0.0
-0.00141003 -0.02508201 0.0
0.00000000 -0.01022821 0.0
-0.00153480 0.01023006 0.0
-0.00579902 0.02939730 0.0
-0.01238647 0.04681617 0.0
-0.02089413 0.06212629 0.0
-0.03092003 0.07506153 0.0
-0.04207208 0.08544718 0.0
-0.05397570 0.09319384 0.0
-0.06628006 0.09828869 0.0
-0.07866275 0.10078504 0.0
-0.09083290 0.10079096 0.0
-0.10253273 0.09845796 0.0
-0.11353775 0.09397013 0.0
-0.12365585 0.08753449 0.0
-0.13272562 0.07937275 0.0
-0.14061398 0.06971470 0.0
-0.14721370 0.05879325 0.0
-0.15244083 0.04684109 0.0
-0.15623228 0.03408882 0.0
-0.15854392 0.02076423 0.0
-0.15934903 0.00709266 0.0
-0.15863740 -0.00670203 0.0
-0.15641514 -0.02039599 0.0
-0.15270508 -0.03376388 0.0
-0.14754781 -0.04657750 0.0
-0.14100340 -0.05860489 0.0
-0.13315352 -0.06961031 0.0
-0.12410400 -0.07935514 0.0
-0.11398748 -0.08760016 0.0
-0.10296605 -0.09410934 0.0
-0.09123361 -0.09865529 0.0
-0.07901751 -0.10102635 0.0
-0.06657932 -0.10103541 0.0
-0.05421442 -0.09853004 0.0
-0.04225005 -0.09340373 0.0
-0.03104180 -0.08560749 0.0
-0.02096841 -0.07516127 0.0
-0.01242497 -0.06216421 0.0
-0.00581476 -0.04680290 0.0
-0.00154003 -0.02935675 0.0
0.00000000 -0.01191200 0.0
-0.00166907 0.01191451 0.0
-0.00630282 0.03403104 0.0
-0.01344320 0.05395656 0.0
-0.02263807 0.07132116 0.0
-0.03343800 0.08586146 0.0
-0.04540735 0.09741652 0.0
-0.05813362 0.10592011 0.0
-0.07123484 0.11138991 0.0
-0.08436468 0.11391488 0.0
-0.09721551 0.11364179 0.0
-0.10951939 0.11076184 0.0
-0.12104741 0.10549815 0.0
-0.13160768 0.09809476 0.0
-0.14104240 0.08880747 0.0
-0.14922437 0.07789667 0.0
-0.15605332 0.06562220 0.0
-0.16145236 0.05224014 0.0
-0.16536475 0.03800121 0.0
-0.16775125 0.02315072 0.0
-0.16858813 0.00792954 0.0
-0.16786604 -0.00742412 0.0
-0.16558962 -0.02267241 0.0
-0.16177806 -0.03757544 0.0
-0.15646645 -0.05188911 0.0
-0.14970793 -0.06536341 0.0
-0.14157656 -0.07774168 0.0
-0.13217070 -0.08876099 0.0
-0.12161676 -0.09815410 0.0
-0.11007297 -0.10565314 0.0
-0.09773296 -0.11099530 0.0
-0.08482868 -0.11393063 0.0
-0.07163231 -0.11423179 0.0
-0.05845666 -0.11170569 0.0
-0.04565383 -0.10620656 0.0
-0.03361170 -0.09764962 0.0
-0.02274817 -0.08602480 0.0
-0.01350318 -0.07140921 0.0
-0.00632868 -0.05397740 0.0
-0.00167706 -0.03400837 0.0
0.00000000 -0.01374278 0.0
-0.00181112 0.01374602 0.0
-0.00683525 0.03905518 0.0
-0.01455479 0.06167609 0.0
-0.02446241 0.08122878 0.0
-0.03605597 0.09745502 0.0
-0.04885216 0.11021271 0.0
-0.06239777 0.11946573 0.0
-0.07627833 0.12527047 0.0
-0.09012365 0.12776020 0.0
-0.10361066 0.12712879 0.0
-0.11646358 0.12361476 0.0
-0.12845215 0.11748672 0.0
-0.13938819 0.10903080 0.0
-0.14912122 0.09854050 0.0
-0.15753351 0.08630896 0.0
-0.16453509 0.07262379 0.0
-0.17005905 0.05776410 0.0
-0.17405734 0.04199950 0.0
-0.17649736 0.02559074 0.0
-0.17735948 0.00879166 0.0
-0.17663554 -0.00814806 0.0
-0.17432837 -0.02497958 0.0
-0.17045246 -0.04145135 0.0
-0.16503561 -0.05730596 0.0
-0.15812166 -0.07227737 0.0
-0.14977407 -0.08608927 0.0
-0.14008033 -0.09845473 0.0
-0.12915688 -0.10907755 0.0
-0.11715428 -0.11765574 0.0
-0.10426228 -0.12388730 0.0
-0.09071429 -0.12747863 0.0
-0.07679066 -0.12815542 0.0
-0.06282035 -0.12567600 0.0
-0.04918032 -0.11984659 0.0
-0.03629222 -0.11053771 0.0
-0.02461614 -0.09770088 0.0
-0.01464125 -0.08138410 0.0
-0.00687377 -0.06174488 0.0
-0.00182261 -0.03905952 0.0
0.00000000 -0.01573122 0.0
-0.00196238 0.01573529 0.0
-0.00740113 0.04449393 0.0
-0.01572954 0.07000450 0.0
-0.02637752 0.09187677 0.0
-0.03878367 0.10986116 0.0
-0.05241191 0.12384095 0.0
-0.06676517 0.13381898 0.0
-0.08139515 0.13990045 0.0
-0.09590833 0.14227339 0.0
-0.10996824 0.14118871 0.0
-0.12329457 0.13694109 0.0
-0.13565974 0.12985189 0.0
-0.14688381 0.12025486 0.0
-0.15682817 0.10848486 0.0
-0.16538898 0.09486977 0.0
-0.17249057 0.07972538 0.0
-0.17807941 0.06335294 0.0
-0.18211889 0.04603898 0.0
-0.18458509 0.02805694 0.0
-0.18546370 0.00967027 0.0
-0.18474816 -0.00886360 0.0
-0.18243915 -0.02728859 0.0
-0.17854524 -0.04534526 0.0
-0.17308498 -0.06276622 0.0
-0.16609011 -0.07927224 0.0
-0.15761004 -0.09456934 0.0
-0.14771730 -0.10834747 0.0
-0.13651385 -0.12028100 0.0
-0.12413786 -0.13003174 0.0
-0.11077052 -0.13725463 0.0
-0.09664247 -0.14160668 0.0
-0.08203887 -0.14275901 0.0
-0.06730273 -0.14041215 0.0
-0.05283537 -0.13431395 0.0
-0.03909364 -0.12427944 0.0
-0.02658322 -0.11021130 0.0
-0.01584789 -0.09211943 0.0
-0.00745506 -0.07013772 0.0
-0.00197820 -0.04453637 0.0
0.00000000 -0.01788976 0.0
-0.00212445 0.01789476 0.0
-0.00800569 0.05037516 0.0
-0.01697621 0.07897502 0.0
-0.02839367 0.10329423 0.0
-0.04162924 0.12309673 0.0
-0.05608808 0.13829979 0.0