# vtk DataFile Version 4.0
2D velocity field
ASCII
DATASET STRUCTURED_GRID
DIMENSIONS 40 40 1
POINTS 1600 float
0.00000000 0.00000000 1.0
1.00000000 0.00000000 1.0
2.00000000 0.00000000 1.0
3.00000000 0.00000000 1.0
4.00000000 0.00000000 1.0
5.00000000 0.00000000 1.0
6.00000000 0.00000000 1.0
7.00000000 0.00000000 1.0
8.00000000 0.00000000 1.0
9.00000000 0.00000000 1.0
10.00000000 0.00000000 1.0
11.00000000 0.00000000 1.0
12.00000000 0.00000000 1.0
13.00000000 0.00000000 1.0
14.00000000 0.00000000 1.0
15.00000000 0.00000000 1.0
16.00000000 0.00000000 1.0
17.00000000 0.00000000 1.0
18.00000000 0.00000000 1.0
19.00000000 0.00000000 1.0
20.00000000 0.00000000 1.0
21.00000000 0.00000000 1.0
22.00000000 0.00000000 1.0
23.00000000 0.00000000 1.0
24.00000000 0.00000000 1.0
25.00000000 0.00000000 1.0
26.00000000 0.00000000 1.0
27.00000000 0.00000000 1.0
28.00000000 0.00000000 1.0
29.00000000 0.00000000 1.0
30.00000000 0.00000000 1.0
31.00000000 0.00000000 1.0
32.00000000 0.00000000 1.0
33.00000000 0.00000000 1.0
34.00000000 0.00000000 1.0
35.00000000 0.00000000 1.0
36.00000000 0.00000000 1.0
37.00000000 0.00000000 1.0
38.00000000 0.00000000 1.0
39.00000000 0.00000000 1.0
0.00000000 1.00000000 1.0
1.00000000 1.00000000 1.0
2.00000000 1.00000000 1.0
3.00000000 1.00000000 1.0
4.00000000 1.00000000 1.0
5.00000000 1.00000000 1.0
6.00000000 1.00000000 1.0
7.00000000 1.00000000 1.0
8.00000000 1.00000000 1.0
9.00000000 1.00000000 1.0
10.00000000 1.00000000 1.0
11.00000000 1.00000000 1.0
12.00000000 1.00000000 1.0
13.00000000 1.00000000 1.0
14.00000000 1.00000000 1.0
15.00000000 1.00000000 1.0
16.00000000 1.00000000 1.0
17.00000000 1.00000000 1.0
18.00000000 1.00000000 1.0
19.00000000 1.00000000 1.0
20.00000000 1.00000000 1.0
21.00000000 1.00000000 1.0
22.00000000 1.00000000 1.0
23.00000000 1.00000000 1.0
24.00000000 1.00000000 1.0
25.00000000 1.00000000 1.0
26.00000000 1.00000000 1.0
27.00000000 1.00000000 1.0
28.00000000 1.00000000 1.0
29.00000000 1.00000000 1.0
30.00000000 1.00000000 1.0
31.00000000 1.00000000 1.0
32.00000000 1.00000000 1.0
33.00000000 1.00000000 1.0
34.00000000 1.00000000 1.0
35.00000000 1.00000000 1.0
36.00000000 1.00000000 1.0
37.00000000 1.00000000 1.0
38.00000000 1.00000000 1.0
39.00000000 1.00000000 1.0
0.00000000 2.00000000 1.0
1.00000000 2.00000000 1.0
2.00000000 2.00000000 1.0
3.00000000 2.00000000 1.0
4.00000000 2.00000000 1.0
5.00000000 2.00000000 1.0
6.00000000 2.00000000 1.0
7.00000000 2.00000000 1.0
8.00000000 2.00000000 1.0
9.00000000 2.00000000 1.0
10.00000000 2.00000000 1.0
11.00000000 2.00000000 1.0
12.00000000 2.00000000 1.0
13.00000000 2.00000000 1.0
14.00000000 2.00000000 1.0
15.00000000 2.00000000 1.0
16.00000000 2.00000000 1.0
17.00000000 2.00000000 1.0
18.00000000 2.00000000 1.0
19.00000000 2.00000000 1.0
20.00000000 2.00000000 1.0
21.00000000 2.00000000 1.0
22.00000000 2.00000000 1.0
23.00000000 2.00000000 1.0
24.00000000 2.00000000 1.0
25.00000000 2.00000000 1.0
26.00000000 2.00000000 1.0
27.00000000 2.00000000 1.0
28.00000000 2.00000000 1.0
29.00000000 2.00000000 1.0
30.00000000 2.00000000 1.0
31.00000000 2.00000000 1.0
32.00000000 2.00000000 1.0
33.00000000 2.00000000 1.0
34.00000000 2.00000000 1.0
35.00000000 2.00000000 1.0
36.00000000 2.00000000 1.0
37.00000000 2.00000000 1.0
38.00000000 2.00000000 1.0
39.00000000 2.00000000 1.0
0.00000000 3.00000000 1.0
1.00000000 3.00000000 1.0
2.00000000 3.00000000 1.0
3.00000000 3.00000000 1.0
4.00000000 3.00000000 1.0
5.00000000 3.00000000 1.0
6.00000000 3.00000000 1.0
7.00000000 3.00000000 1.0
8.00000000 3.00000000 1.0
9.00000000 3.00000000 1.0
10.00000000 3.00000000 1.0
11.00000000 3.00000000 1.0
12.00000000 3.00000000 1.0
13.00000000 3.00000000 1.0
14.00000000 3.00000000 1.0
15.00000000 3.00000000 1.0
16.00000000 3.00000000 1.0
17.00000000 3.00000000 1.0
18.00000000 3.00000000 1.0
19.00000000 3.00000000 1.0
20.00000000 3.00000000 1.0
21.00000000 3.00000000 1.0
22.00000000 3.00000000 1.0
23.00000000 3.00000000 1.0
24.00000000 3.00000000 1.0
25.00000000 3.00000000 1.0
26.00000000 3.00000000 1.0
27.00000000 3.00000000 1.0
28.00000000 3.00000000 1.0
29.00000000 3.00000000 1.0
30.00000000 3.00000000 1.0
31.00000000 3.00000000 1.0
32.00000000 3.00000000 1.0
33.00000000 3.00000000 1.0
34.00000000 3.00000000 1.0
35.00000000 3.00000000 1.0
36.00000000 3.00000000 1.0
37.00000000 3.00000000 1.0
38.00000000 3.00000000 1.0
39.00000000 3.00000000 1.0
0.00000000 4.00000000 1.0
1.00000000 4.00000000 1.0
2.00000000 4.00000000 1.0
3.00000000 4.00000000 1.0
4.00000000 4.00000000 1.0
5.00000000 4.00000000 1.0
6.00000000 4.00000000 1.0
7.00000000 4.00000000 1.0
8.00000000 4.00000000 1.0
9.00000000 4.00000000 1.0
10.00000000 4.00000000 1.0
11.00000000 4.00000000 1.0
12.00000000 4.00000000 1.0
13.00000000 4.00000000 1.0
14.00000000 4.00000000 1.0
15.00000000 4.00000000 1.0
16.00000000 4.00000000 1.0
17.00000000 4.00000000 1.0
18.00000000 4.00000000 1.0
19.00000000 4.00000000 1.0
20.00000000 4.00000000 1.0
21.00000000 4.00000000 1.0
22.00000000 4.00000000 1.0
23.00000000 4.00000000 1.0
24.00000000 4.00000000 1.0
25.00000000 4.00000000 1.0
26.00000000 4.00000000 1.0
27.00000000 4.00000000 1.0
28.00000000 4.00000000 1.0
29.00000000 4.00000000 1.0
30.00000000 4.00000000 1.0
31.00000000 4.00000000 1.0
32.00000000 4.00000000 1.0
33.00000000 4.00000000 1.0
34.00000000 4.00000000 1.0
35.00000000 4.00000000 1.0
36.00000000 4.00000000 1.0
37.00000000 4.00000000 1.0
38.00000000 4.00000000 1.0
39.00000000 4.00000000 1.0
0.00000000 5.00000000 1.0
1.00000000 5.00000000 1.0
2.00000000 5.00000000 1.0
3.00000000 5.00000000 1.0
4.00000000 5.00000000 1.0
5.00000000 5.00000000 1.0
6.00000000 5.00000000 1.0
7.00000000 5.00000000 1.0
8.00000000 5.00000000 1.0
9.00000000 5.00000000 1.0
10.00000000 5.00000000 1.0
11.00000000 5.00000000 1.0
12.00000000 5.00000000 1.0
13.00000000 5.00000000 1.0
14.00000000 5.00000000 1.0
15.00000000 5.00000000 1.0
16.00000000 5.00000000 1.0
17.00000000 5.00000000 1.0
18.00000000 5.00000000 1.0
19.00000000 5.00000000 1.0
20.00000000 5.00000000 1.0
21.00000000 5.00000000 1.0
22.00000000 5.00000000 1.0
23.00000000 5.00000000 1.0
24.00000000 5.00000000 1.0
25.00000000 5.00000000 1.0
26.00000000 5.00000000 1.0
27.00000000 5.00000000 1.0
28.00000000 5.00000000 1.0
29.00000000 5.00000000 1.0
30.00000000 5.00000000 1.0
31.00000000 5.00000000 1.0
32.00000000 5.00000000 1.0
33.00000000 5.00000000 1.0
34.00000000 5.00000000 1.0
35.00000000 5.00000000 1.0
36.00000000 5.00000000 1.0
37.00000000 5.00000000 1.0
38.00000000 5.00000000 1.0
39.00000000 5.00000000 1.0
0.00000000 6.00000000 1.0
1.00000000 6.00000000 1.0
2.00000000 6.00000000 1.0
3.00000000 6.00000000 1.0
4.00000000 6.00000000 1.0
5.00000000 6.00000000 1.0
6.00000000 6.00000000 1.0
7.00000000 6.00000000 1.0
8.00000000 6.00000000 1.0
9.00000000 6.00000000 1.0
10.00000000 6.00000000 1.0
11.00000000 6.00000000 1.0
12.00000000 6.00000000 1.0
13.00000000 6.00000000 1.0
14.00000000 6.00000000 1.0
15.00000000 6.00000000 1.0
16.00000000 6.00000000 1.0
17.00000000 6.00000000 1.0
18.00000000 6.00000000 1.0
19.00000000 6.00000000 1.0
20.00000000 6.00000000 1.0
21.00000000 6.00000000 1.0
22.00000000 6.00000000 1.0
23.00000000 6.00000000 1.0
24.00000000 6.00000000 1.0
25.00000000 6.00000000 1.0
26.00000000 6.00000000 1.0
27.00000000 6.00000000 1.0
28.00000000 6.00000000 1.0
29.00000000 6.00000000 1.0
30.00000000 6.00000000 1.0
31.00000000 6.00000000 1.0
32.00000000 6.00000000 1.0
33.00000000 6.00000000 1.0
34.00000000 6.00000000 1.0
35.00000000 6.00000000 1.0
36.00000000 6.00000000 1.0
37.00000000 6.00000000 1.0
38.00000000 6.00000000 1.0
39.00000000 6.00000000 1.0
0.00000000 7.00000000 1.0
1.00000000 7.00000000 1.0
2.00000000 7.00000000 1.0
3.00000000 7.00000000 1.0
4.00000000 7.00000000 1.0
5.00000000 7.00000000 1.0
6.00000000 7.00000000 1.0
7.00000000 7.00000000 1.0
8.00000000 7.00000000 1.0
9.00000000 7.00000000 1.0
10.00000000 7.00000000 1.0
11.00000000 7.00000000 1.0
12.00000000 7.00000000 1.0
13.00000000 7.00000000 1.0
14.00000000 7.00000000 1.0
15.00000000 7.00000000 1.0
16.00000000 7.00000000 1.0
17.00000000 7.00000000 1.0
18.00000000 7.00000000 1.0
19.00000000 7.00000000 1.0
20.00000000 7.00000000 1.0
21.00000000 7.00000000 1.0
22.00000000 7.00000000 1.0
23.00000000 7.00000000 1.0
24.00000000 7.00000000 1.0
25.00000000 7.00000000 1.0
26.00000000 7.00000000 1.0
27.00000000 7.00000000 1.0
28.00000000 7.00000000 1.0
29.00000000 7.00000000 1.0
30.00000000 7.00000000 1.0
31.00000000 7.00000000 1.0
32.00000000 7.00000000 1.0
33.00000000 7.00000000 1.0
34.00000000 7.00000000 1.0
35.00000000 7.00000000 1.0
36.00000000 7.00000000 1.0
37.00000000 7.00000000 1.0
38.00000000 7.00000000 1.0
39.00000000 7.00000000 1.0
0.00000000 8.00000000 1.0
1.00000000 8.00000000 1.0
2.00000000 8.00000000 1.0
3.00000000 8.00000000 1.0
4.00000000 8.00000000 1.0
5.00000000 8.00000000 1.0
6.00000000 8.00000000 1.0
7.00000000 8.00000000 1.0
8.00000000 8.00000000 1.0
9.00000000 8.00000000 1.0
10.00000000 8.00000000 1.0
11.00000000 8.00000000 1.0
12.00000000 8.00000000 1.0
13.00000000 8.00000000 1.0
14.00000000 8.00000000 1.0
15.00000000 8.00000000 1.0
16.00000000 8.00000000 1.0
17.00000000 8.00000000 1.0
18.00000000 8.00000000 1.0
19.00000000 8.00000000 1.0
20.00000000 8.00000000 1.0
21.00000000 8.00000000 1.0
22.00000000 8.00000000 1.0
23.00000000 8.00000000 1.0
24.00000000 8.00000000 1.0
25.00000000 8.00000000 1.0
26.00000000 8.00000000 1.0
27.00000000 8.00000000 1.0
28.00000000 8.00000000 1.0
29.00000000 8.00000000 1.0
30.00000000 8.00000000 1.0
31.00000000 8.00000000 1.0
32.00000000 8.00000000 1.0
33.00000000 8.00000000 1.0
34.00000000 8.00000000 1.0
35.00000000 8.00000000 1.0
36.00000000 8.00000000 1.0
37.00000000 8.00000000 1.0
38.00000000 8.00000000 1.0
39.00000000 8.00000000 1.0
0.00000000 9.00000000 1.0
1.00000000 9.00000000 1.0
2.00000000 9.00000000 1.0
3.00000000 9.00000000 1.0
4.00000000 9.00000000 1.0
5.00000000 9.00000000 1.0
6.00000000 9.00000000 1.0
7.00000000 9.00000000 1.0
8.00000000 9.00000000 1.0
[...]
POINT_DATA 1600
VECTORS velocity double
0.00000000 0.00002424 0.0
0.00000025 -0.00002435 0.0
0.00000045 -0.00000227 0.0
0.00000058 0.00005488 0.0
0.00000062 0.00012191 0.0
0.00000057 0.00018612 0.0
0.00000047 0.00024177 0.0
0.00000032 0.00028646 0.0
0.00000015 0.00031940 0.0
-0.00000004 0.00034061 0.0
-0.00000024 0.00035055 0.0
-0.00000044 0.00034991 0.0
-0.00000063 0.00033956 0.0
-0.00000081 0.00032044 0.0
-0.00000097 0.00029355 0.0
-0.00000112 0.00025993 0.0
-0.00000124 0.00022062 0.0
-0.00000134 0.00017666 0.0
-0.00000141 0.00012910 0.0
-0.00000145 0.00007895 0.0
-0.00000146 0.00002724 0.0
-0.00000145 -0.00002502 0.0
-0.00000141 -0.00007680 0.0
-0.00000134 -0.00012709 0.0
-0.00000124 -0.00017485 0.0
-0.00000112 -0.00021903 0.0
-0.00000098 -0.00025857 0.0
-0.00000081 -0.00029241 0.0
-0.00000063 -0.00031947 0.0
-0.00000044 -0.00033871 0.0
-0.00000024 -0.00034910 0.0
-0.00000004 -0.00034969 0.0
0.00000015 -0.00033962 0.0
0.00000032 -0.00031820 0.0
0.00000047 -0.00028500 0.0
0.00000057 -0.00024004 0.0
0.00000062 -0.00018414 0.0
0.00000058 -0.00011972 0.0
0.00000045 -0.00005259 0.0
0.00000024 0.00000449 0.0
0.00000000 0.00007391 0.0
0.00009422 -0.00007443 0.0
0.00005850 0.00004874 0.0
-0.00016682 0.00029640 0.0
-0.00060847 0.00058093 0.0
-0.00125920 0.00085545 0.0
-0.00209380 0.00109610 0.0
-0.00307812 0.00129145 0.0
-0.00417417 0.00143676 0.0
-0.00534306 0.00153111 0.0
-0.00654674 0.00157575 0.0
-0.00774914 0.00157334 0.0
-0.00891680 0.00152738 0.0
-0.01001939 0.00144192 0.0
-0.01102992 0.00132135 0.0
-0.01192492 0.00117025 0.0
-0.01268452 0.00099331 0.0
-0.01329247 0.00079522 0.0
-0.01373613 0.00058069 0.0
-0.01400645 0.00035439 0.0
-0.01409797 0.00012098 0.0
-0.01400879 -0.00011491 0.0
-0.01374057 -0.00034863 0.0
-0.01329857 -0.00057552 0.0
-0.01269167 -0.00079085 0.0
-0.01193240 -0.00098989 0.0
-0.01103698 -0.00116782 0.0
-0.01002534 -0.00131983 0.0
-0.00892107 -0.00144115 0.0
-0.00775135 -0.00152710 0.0
-0.00654678 -0.00157322 0.0
-0.00534107 -0.00157544 0.0
-0.00417057 -0.00153024 0.0
-0.00307354 -0.00143505 0.0
-0.00208904 -0.00128869 0.0
-0.00125509 -0.00109223 0.0
-0.00060577 -0.00085055 0.0
-0.00016605 -0.00057530 0.0
0.00005719 -0.00029052 0.0
0.00009132 -0.00004344 0.0
0.00000000 0.00006949 0.0
0.00002436 -0.00007048 0.0
-0.00020956 0.00028266 0.0
-0.00077436 0.00086120 0.0
-0.00170140 0.00150798 0.0
-0.00297823 0.00213228 0.0
-0.00456525 0.00268313 0.0
-0.00640712 0.00313331 0.0
-0.00844029 0.00346993 0.0
-0.01059809 0.00368891 0.0
-0.01281412 0.00379178 0.0
-0.01502448 0.00378370 0.0
-0.01716933 0.00367224 0.0
-0.01919394 0.00346653 0.0
-0.02104928 0.00317669 0.0
-0.02269253 0.00281351 0.0
-0.02408728 0.00238805 0.0
-0.02520365 0.00191159 0.0
-0.02601836 0.00139540 0.0
-0.02651473 0.00085076 0.0
-0.02668268 0.00028892 0.0
-0.02651870 -0.00027889 0.0
-0.02602590 -0.00084143 0.0
-0.02521402 -0.00138740 0.0
-0.02409946 -0.00190541 0.0
-0.02270533 -0.00238402 0.0
-0.02106146 -0.00281170 0.0
-0.01920432 -0.00317697 0.0
-0.01717698 -0.00346850 0.0
-0.01502875 -0.00367533 0.0
-0.01281480 -0.00378718 0.0
-0.01059539 -0.00379484 0.0
-0.00843485 -0.00369078 0.0
-0.00639995 -0.00346995 0.0
-0.00455760 -0.00313104 0.0
-0.00297140 -0.00267842 0.0
-0.00169657 -0.00212539 0.0
-0.00077226 -0.00149960 0.0
-0.00021028 -0.00085251 0.0
0.00002167 -0.00027539 0.0
0.00000000 -0.00005602 0.0
-0.00009894 0.00005480 0.0
-0.00061083 0.00079455 0.0
-0.00158077 0.00183114 0.0
-0.00302599 0.00295320 0.0
-0.00492274 0.00402902 0.0
-0.00721838 0.00497877 0.0
-0.00984149 0.00575643 0.0
-0.01270975 0.00633819 0.0
-0.01573585 0.00671501 0.0
-0.01883186 0.00688779 0.0
-0.02191240 0.00686425 0.0
-0.02489687 0.00665672 0.0
-0.02771106 0.00628071 0.0
-0.03028820 0.00575383 0.0
-0.03256970 0.00509501 0.0
-0.03450559 0.00432395 0.0
-0.03605479 0.00346078 0.0
-0.03718521 0.00252582 0.0
-0.03787384 0.00153939 0.0
-0.03810676 0.00052184 0.0
-0.03787915 -0.00050649 0.0
-0.03719533 -0.00152525 0.0
-0.03606876 -0.00251397 0.0
-0.03452209 -0.00345208 0.0
-0.03258717 -0.00431894 0.0
-0.03030502 -0.00509385 0.0
-0.02772570 -0.00575629 0.0
-0.02490806 -0.00628613 0.0
-0.02191927 -0.00666412 0.0
-0.01883406 -0.00687239 0.0
-0.01573359 -0.00689532 0.0
-0.01270378 -0.00672059 0.0
-0.00983303 -0.00634070 0.0
-0.00720896 -0.00575511 0.0
-0.00491398 -0.00497340 0.0
-0.00301934 -0.00402003 0.0
-0.00157718 -0.00294176 0.0
-0.00061048 -0.00181920 0.0
-0.00010107 -0.00078481 0.0
0.00000000 -0.00031259 0.0
-0.00023260 0.00031130 0.0
-0.00105109 0.00161304 0.0
-0.00245610 0.00323615 0.0
-0.00443754 0.00493464 0.0
-0.00695295 0.00654443 0.0
-0.00993401 0.00795982 0.0
-0.01329390 0.00911632 0.0
-0.01693426 0.00997855 0.0
-0.02075098 0.01053173 0.0
-0.02463892 0.01077574 0.0
-0.02849558 0.01072090 0.0
-0.03222375 0.01038489 0.0
-0.03573361 0.00979057 0.0
-0.03894408 0.00896431 0.0
-0.04178386 0.00793478 0.0
-0.04419196 0.00673206 0.0
-0.04611820 0.00538702 0.0
-0.04752332 0.00393094 0.0
-0.04837916 0.00239523 0.0
-0.04866866 0.00081134 0.0
-0.04838593 -0.00078922 0.0
-0.04753626 -0.00237492 0.0
-0.04613614 -0.00391408 0.0
-0.04421331 -0.00537492 0.0
-0.04180671 -0.00672553 0.0
-0.03896646 -0.00793410 0.0
-0.03575361 -0.00896913 0.0
-0.03223978 -0.00979996 0.0
-0.02850650 -0.01039740 0.0
-0.02464419 -0.01073470 0.0
-0.02075070 -0.01078881 0.0
-0.01692920 -0.01054209 0.0
-0.01328540 -0.00998450 0.0
-0.00992380 -0.00911671 0.0
-0.00694293 -0.00795427 0.0
-0.00442943 -0.00653353 0.0
-0.00245116 -0.00492003 0.0
-0.00104975 -0.00322061 0.0
-0.00023427 -0.00160029 0.0
0.00000000 -0.00069571 0.0
-0.00036184 0.00069447 0.0
-0.00148992 0.00274112 0.0
-0.00333805 0.00508428 0.0
-0.00586220 0.00745879 0.0
-0.00899544 0.00967767 0.0
-0.01265008 0.01161446 0.0
-0.01672247 0.01318872 0.0
-0.02109849 0.01435456 0.0
-0.02565875 0.01509199 0.0
-0.03028321 0.01540020 0.0
-0.03485490 0.01529258 0.0
-0.03926289 0.01479288 0.0
-0.04340456 0.01393224 0.0
-0.04718720 0.01274695 0.0
-0.05052917 0.01127675 0.0
-0.05336065 0.00956354 0.0
-0.05562410 0.00765047 0.0
-0.05727452 0.00558136 0.0
-0.05827960 0.00340031 0.0
-0.05861977 0.00115152 0.0
-0.05828827 -0.00112072 0.0
-0.05729114 -0.00337205 0.0
-0.05564729 -0.00555793 0.0
-0.05338850 -0.00763371 0.0
-0.05055940 -0.00955463 0.0
-0.04721739 -0.01127611 0.0
-0.04343238 -0.01275414 0.0
-0.03928632 -0.01394602 0.0
-0.03487242 -0.01481130 0.0
-0.03029399 -0.01531313 0.0
-0.02566271 -0.01542010 0.0
-0.02109631 -0.01510848 0.0
-0.01671555 -0.01436526 0.0
-0.01264032 -0.01319194 0.0
-0.00898501 -0.01160958 0.0
-0.00585318 -0.00966535 0.0
-0.00333206 -0.00744115 0.0
-0.00148777 -0.00506490 0.0
-0.00036317 -0.00272490 0.0
0.00000000 -0.00119757 0.0
-0.00048314 0.00119646 0.0
-0.00191381 0.00417179 0.0
-0.00420272 0.00737319 0.0
-0.00727000 0.01052607 0.0
-0.01102062 0.01342829 0.0
-0.01534431 0.01593815 0.0
-0.02011838 0.01796279 0.0
-0.02521196 0.01944814 0.0
-0.03049045 0.02037048 0.0
-0.03581975 0.02072949 0.0
-0.04106987 0.02054270 0.0
-0.04611793 0.01984095 0.0
-0.05085047 0.01866477 0.0
-0.05516509 0.01706157 0.0
-0.05897173 0.01508339 0.0
-0.06219342 0.01278522 0.0
-0.06476676 0.01022381 0.0
-0.06664219 0.00745679 0.0
-0.06778414 0.00454225 0.0
-0.06817105 0.00153844 0.0
-0.06779546 -0.00149631 0.0
-0.06666398 -0.00450353 0.0
-0.06479735 -0.00742456 0.0
-0.06223051 -0.01020055 0.0
-0.05901256 -0.01277258 0.0
-0.05520669 -0.01508198 0.0
-0.05088992 -0.01707091 0.0
-0.04615264 -0.01868330 0.0
-0.04109780 -0.01986615 0.0
-0.03583961 -0.02057131 0.0
-0.03050186 -0.02075785 0.0
-0.02521544 -0.02039491 0.0
-0.02011530 -0.01946539 0.0
-0.01533673 -0.01797051 0.0
-0.01101102 -0.01593530 0.0
-0.00726087 -0.01341550 0.0
-0.00419618 -0.01050584 0.0
-0.00191111 -0.00734998 0.0
-0.00048422 -0.00415179 0.0
0.00000000 -0.00181125 0.0
-0.00059725 0.00181034 0.0
-0.00232205 0.00589659 0.0
-0.00504699 0.01009813 0.0
-0.00865674 0.01413582 0.0
-0.01302637 0.01779792 0.0
-0.01802051 0.02093228 0.0
-0.02349522 0.02343750 0.0
-0.02930134 0.02525426 0.0
-0.03528829 0.02635743 0.0
-0.04130789 0.02674909 0.0
-0.04721769 0.02645250 0.0
-0.05288383 0.02550709 0.0
-0.05818325 0.02396419 0.0
-0.06300533 0.02188365 0.0
-0.06725300 0.01933107 0.0
-0.07084353 0.01637575 0.0
-0.07370887 0.01308915 0.0
-0.07579594 0.00954386 0.0
-0.07706664 0.00581296 0.0
-0.07749790 0.00196970 0.0
-0.07708167 -0.00191255 0.0
-0.07582495 -0.00576025 0.0
-0.07374984 -0.00949966 0.0
-0.07089365 -0.01305675 0.0
-0.06730888 -0.01635735 0.0
-0.06306326 -0.01932760 0.0
-0.05823955 -0.02189462 0.0
-0.05293512 -0.02398773 0.0
-0.04726120 -0.02554006 0.0
-0.04134172 -0.02649079 0.0
-0.03531157 -0.02678800 0.0
-0.02931428 -0.02639219 0.0
-0.02349912 -0.02528056 0.0
-0.01801755 -0.02345208 0.0
-0.01301936 -0.02093349 0.0
-0.00864868 -0.01778618 0.0
-0.00504057 -0.01411394 0.0
-0.00231912 -0.01007144 0.0
-0.00059816 -0.00587274 0.0
0.00000000 -0.00253221 0.0
-0.00070638 0.00253154 0.0
-0.00271965 0.00790986 0.0
-0.00587822 0.01325669 0.0
-0.01003247 0.01829006 0.0
-0.01502662 0.02279207 0.0
-0.02069835 0.02660401 0.0
-0.02688046 0.02961961 0.0
-0.03340380 0.03177760 0.0
-0.04010067 0.03305430 0.0
-0.04680823 0.03345665 0.0
-0.05337159 0.03301587 0.0
-0.05964639 0.03178188 0.0
-0.06550077 0.02981857 0.0
-0.07081688 0.02719976 0.0
-0.07549182 0.02400600 0.0
-0.07943819 0.02032212 0.0
-0.08258439 0.01623535 0.0
-0.08487465 0.01183413 0.0
-0.08626904 0.00720735 0.0
-0.08674336 0.00244401 0.0
-0.08628910 -0.00236681 0.0
-0.08491348 -0.00713587 0.0
-0.08263952 -0.01177363 0.0
-0.07950615 -0.01619011 0.0
-0.07556839 -0.02029511 0.0
-0.07089742 -0.02399857 0.0
-0.06558057 -0.02721148 0.0
-0.05972105 -0.02984726 0.0
-0.05343736 -0.03182374 0.0
-0.04686234 -0.03306582 0.0
-0.04014155 -0.03350879 0.0
-0.03343122 -0.03310253 0.0
-0.02689550 -0.03181627 0.0
-0.02070329 -0.02964429 0.0
-0.01502461 -0.02661217 0.0
-0.01002708 -0.02278371 0.0
-0.00587287 -0.01826815 0.0
-0.00271692 -0.01322739 0.0
-0.00070725 -0.00788241 0.0
0.00000000 -0.00335859 0.0
-0.00081318 0.00335822 0.0
-0.00311385 0.01021054 0.0
-0.00670860 0.01685145 0.0
-0.01141435 0.02299581 0.0
-0.01704380 0.02842152 0.0
-0.02340611 0.03296632 0.0
-0.03030898 0.03652249 0.0
-0.03756161 0.03903022 0.0
-0.04497786 0.04047055 0.0
-0.05237945 0.04085825 0.0
-0.05959877 0.04023518 0.0
-0.06648109 0.03866421 0.0
-0.07288635 0.03622383 0.0
-0.07869028 0.03300368 0.0
-0.08378506 0.02910079 0.0
-0.08807967 0.02461673 0.0
-0.09149986 0.01965554 0.0
-0.09398803 0.01432230 0.0
-0.09550301 0.00872232 0.0
-0.09601984 0.00296084 0.0
-0.09552968 -0.00285696 0.0
-0.09403981 -0.00862574 0.0
-0.09157371 -0.01423973 0.0
-0.08817128 -0.01959254 0.0
-0.08388918 -0.02457721 0.0
-0.07880106 -0.02908668 0.0
-0.07299780 -0.03301474 0.0
-0.06658745 -0.03625760 0.0
-0.05969503 -0.03871617 0.0
-0.05246168 -0.04029916 0.0
-0.04504354 -0.04092693 0.0
-0.03760984 -0.04053623 0.0
-0.03034051 -0.03908560 0.0
-0.02342320 -0.03656160 0.0
-0.01704995 -0.03298542 0.0
-0.01141377 -0.02841988 0.0
-0.00670557 -0.02297635 0.0
-0.00311190 -0.01682106 0.0
-0.00081416 -0.01018015 0.0
0.00000000 -0.00429122 0.0
-0.00092021 0.00429118 0.0
-0.00351247 0.01280280 0.0
-0.00755206 0.02089103 0.0
-0.01282247 0.02826623 0.0
-0.01910396 0.03470300 0.0
-0.02617562 0.04003797 0.0
-0.03381830 0.04416517 0.0
-0.04181785 0.04702977 0.0
-0.04996839 0.04862110 0.0
-0.05807536 0.04896522 0.0
-0.06595802 0.04811784 0.0
-0.07345141 0.04615760 0.0
-0.08040770 0.04318012 0.0
-0.08669694 0.03929292 0.0
-0.09220734 0.03461119 0.0
-0.09684522 0.02925461 0.0
-0.10053463 0.02334495 0.0
-0.10321693 0.01700460 0.0
-0.10485034 0.01035573 0.0
-0.10540954 0.00352005 0.0
-0.10488548 -0.00338102 0.0
-0.10328528 -0.01022594 0.0
-0.10063247 -0.01689255 0.0
-0.09696724 -0.02325777 0.0
-0.09234701 -0.02919744 0.0
-0.08684692 -0.03458677 0.0
-0.08056038 -0.03930129 0.0
-0.07359937 -0.04321861 0.0
-0.06609460 -0.04622094 0.0
-0.05819515 -0.04819861 0.0
-0.05006762 -0.04905447 0.0
-0.04189467 -0.04870918 0.0
-0.03387290 -0.04710736 0.0
-0.02621016 -0.04422434 0.0
-0.01912225 -0.04007333 0.0
-0.01282944 -0.03471269 0.0
-0.00755299 -0.02825280 0.0
-0.00351207 -0.02086197 0.0
-0.00092152 -0.01277070 0.0
0.00000000 -0.00533340 0.0
-0.00102988 0.00533374 0.0
-0.00392314 0.01569606 0.0
-0.00842259 0.02539047 0.0
-0.01427734 0.03412098 0.0
-0.02123369 0.04165935 0.0
-0.02903888 0.04784317 0.0
-0.03744505 0.05257133 0.0
-0.04621304 0.05579777 0.0
-0.05511597 0.05752402 0.0
-0.06394214 0.05779139 0.0
-0.07249741 0.05667311 0.0
-0.08060675 0.05426693 0.0
-0.08811509 0.05068847 0.0
-0.09488767 0.04606550 0.0
-0.10080973 0.04053325 0.0
-0.10578599 0.03423086 0.0
-0.10973981 0.02729877 0.0
-0.11261243 0.01987722 0.0
-0.11436214 0.01210543 0.0
-0.11496365 0.00412156 0.0
-0.11440781 -0.00393686 0.0
-0.11270144 -0.01193231 0.0
-0.10986759 -0.01972640 0.0
-0.10594603 -0.02717932 0.0
-0.10099400 -0.03414947 0.0
-0.09508705 -0.04049372 0.0
-0.08831999 -0.04606836 0.0
-0.08080770 -0.05073090 0.0
-0.07268574 -0.05434289 0.0
-0.06411054 -0.05677381 0.0
-0.05525905 -0.05790596 0.0
-0.04632770 -0.05764053 0.0
-0.03753066 -0.05590439 0.0
-0.02909733 -0.05265767 0.0
-0.02126903 -0.04790163 0.0
-0.01429525 -0.04168647 0.0
-0.00842952 -0.03411852 0.0
-0.00392527 -0.02536623 0.0
-0.00103177 -0.01566420 0.0
0.00000000 -0.00649065 0.0
-0.00114433 0.00649140 0.0
-0.00435297 0.01890470 0.0
-0.00933349 0.03037100 0.0
-0.01579854 0.04058603 0.0
-0.02345826 0.04931906 0.0
-0.03202580 0.05641071 0.0
-0.04122252 0.06176805 0.0
-0.05078257 0.06535782 0.0
-0.06045681 0.06719825 0.0
-0.07001577 0.06735035 0.0
-0.07925177 0.06590911 0.0
-0.08798006 0.06299522 0.0
-0.09603916 0.05874758 0.0
-0.10329054 0.05331687 0.0
-0.10961770 0.04686041 0.0
-0.11492503 0.03953819 0.0
-0.11913644 0.03151019 0.0
-0.12219404 0.02293482 0.0
-0.12405696 0.01396835 0.0
-0.12470046 0.00476507 0.0
-0.12411541 -0.00452192 0.0
-0.12230811 -0.01373961 0.0
-0.11930063 -0.02273388 0.0
-0.11513145 -0.03134850 0.0
-0.10985653 -0.03942438 0.0
-0.10355059 -0.04679966 0.0
-0.09630851 -0.05331043 0.0
-0.08824680 -0.05879261 0.0
-0.07950477 -0.06308493 0.0
-0.07024540 -0.06603318 0.0
-0.06065561 -0.06749575 0.0
-0.05094580 -0.06735034 0.0
-0.04134844 -0.06550175 0.0
-0.03211578 -0.06189034 0.0
-0.02351648 -0.05650093 0.0
-0.01583147 -0.04937149 0.0
-0.00934892 -0.04060108 0.0
-0.00435881 -0.03035634 0.0
-0.00114714 -0.01887586 0.0
0.00000000 -0.00777050 0.0
-0.00126547 0.00777172 0.0
-0.00480841 0.02244763 0.0
-0.01029694 0.03585952 0.0
-0.01740398 0.04769307 0.0
-0.02580046 0.05771554 0.0
-0.03516266 0.06577291 0.0
-0.04517881 0.07178420 0.0
-0.05555457 0.07573358 0.0
-0.06601740 0.07766109 0.0
-0.07631960 0.07765255 0.0
-0.08624012 0.07582963 0.0
-0.09558524 0.07234033 0.0
-0.10418819 0.06735053 0.0
-0.11190811 0.06103679 0.0
-0.11862835 0.05358066 0.0
-0.12425457 0.04516440 0.0
-0.12871264 0.03596826 0.0
-0.13194681 0.02616899 0.0
-0.13391800 0.01593953 0.0
-0.13460256 0.00544963 0.0
-0.13399157 -0.00513291 0.0
-0.13209059 -0.01564058 0.0
-0.12892007 -0.02590441 0.0
-0.12451620 -0.03575236 0.0
-0.11893238 -0.04500820 0.0
-0.11224095 -0.05349110 0.0
-0.10453525 -0.06101614 0.0
-0.09593174 -0.06739612 0.0
-0.08657202 -0.07244464 0.0
-0.07662447 -0.07598073 0.0
-0.06628526 -0.07783496 0.0
-0.05577856 -0.07785704 0.0
-0.04535569 -0.07592462 0.0
-0.03529298 -0.07195304 0.0
-0.02588839 -0.06590552 0.0
-0.01745674 -0.05780313 0.0
-0.01032382 -0.04773400 0.0
-0.00481941 -0.03586075 0.0
-0.00126962 -0.02242565 0.0
0.00000000 -0.00918228 0.0
-0.00139503 0.00918403 0.0
-0.00529532 0.02634793 0.0
-0.01132389 0.04188809 0.0
-0.01910954 0.05547872 0.0
-0.02827996 0.06688596 0.0
-0.03847113 0.07596408 0.0
-0.04933544 0.08264850 0.0
-0.06054817 0.08694632 0.0
-0.07181238 0.08892529 0.0
-0.08286195 0.08870212 0.0
-0.09346306 0.08643075 0.0
-0.10341421 0.08229148 0.0
-0.11254502 0.07648134 0.0
-0.12071424 0.06920601 0.0
-0.12780710 0.06067352 0.0
-0.13373250 0.05108980 0.0
-0.13842012 0.04065589 0.0
-0.14181784 0.02956671 0.0
-0.14388949 0.01801118 0.0
-0.14461322 0.00617336 0.0
-0.14398054 -0.00576559 0.0
-0.14199601 -0.01762511 0.0
-0.13867770 -0.02922272 0.0
-0.13405836 -0.04037170 0.0
-0.12818723 -0.05087933 0.0
-0.12113242 -0.06054591 0.0
-0.11298365 -0.06916491 0.0
-0.10385525 -0.07652451 0.0
-0.09388910 -0.08241079 0.0
-0.08325724 -0.08661259 0.0
-0.07216388 -0.08892832 0.0
-0.06084641 -0.08917451 0.0
-0.04957519 -0.08719584 0.0
-0.03865178 -0.08287646 0.0
-0.02840540 -0.07615189 0.0
-0.01918770 -0.06702083 0.0
-0.01136568 -0.05555601 0.0
-0.00531317 -0.04191326 0.0
-0.00140098 -0.02633784 0.0
0.00000000 -0.01073702 0.0
-0.00153456 0.01073937 0.0
-0.00581902 0.03063239 0.0
-0.01242416 0.04849323 0.0
-0.02092900 0.06398355 0.0
-0.03091296 0.07686993 0.0
-0.04196759 0.08701871 0.0
-0.05370629 0.09438720 0.0
-0.06577201 0.09901204 0.0
-0.07784256 0.10099585 0.0
-0.08963366 0.10049322 0.0
-0.10089986 0.09769694 0.0
-0.11143371 0.09282533 0.0
-0.12106353 0.08611117 0.0
-0.12965026 0.07779273 0.0
-0.13708364 0.06810689 0.0
-0.14327831 0.05728447 0.0
-0.14816997 0.04554755 0.0
-0.15171195 0.03310869 0.0
-0.15387238 0.02017160 0.0
-0.15463205 0.00693303 0.0
-0.15398316 -0.00641447 0.0
-0.15192898 -0.01967930 0.0
-0.14848434 -0.03266736 0.0
-0.14367713 -0.04517891 0.0
-0.13755057 -0.05700589 0.0
-0.13016624 -0.06793024 0.0
-0.12160767 -0.07772347 0.0
-0.11198436 -0.08614783 0.0
-0.10143580 -0.09295935 0.0
-0.09013531 -0.09791307 0.0
-0.07829323 -0.10077040 0.0
-0.06615904 -0.10130870 0.0
-0.05402194 -0.09933294 0.0
-0.04220959 -0.09468880 0.0
-0.03108464 -0.08727684 0.0
-0.02103884 -0.07706663 0.0
-0.01248481 -0.06411004 0.0
-0.00584567 -0.04855241 0.0
-0.00154288 -0.03064063 0.0
0.00000000 -0.01244732 0.0
-0.00168551 0.01245034 0.0
-0.00638442 0.03533129 0.0
-0.01360656 0.05571537 0.0
-0.02287412 0.07325111 0.0
-0.03371212 0.08770792 0.0
-0.04566265 0.09896924 0.0
-0.05829665 0.10702119 0.0
-0.07122271 0.11193809 0.0
-0.08409289 0.11386603 0.0
-0.09660552 0.11300585 0.0
-0.10850537 0.10959679 0.0
-0.11958170 0.10390166 0.0
-0.12966469 0.09619415 0.0
-0.13862077 0.08674881 0.0
-0.14634753 0.07583365 0.0
-0.15276842 0.06370536 0.0
-0.15782787 0.05060700 0.0
-0.16148688 0.03676770 0.0
-0.16371946 0.02240419 0.0
-0.16451006 0.00772363 0.0
-0.16385192 -0.00707261 0.0
-0.16174667 -0.02178455 0.0
-0.15820492 -0.03620911 0.0
-0.15324806 -0.05013577 0.0
-0.14691104 -0.06334291 0.0
-0.13924616 -0.07559512 0.0
-0.13032761 -0.08664203 0.0
-0.12025660 -0.09621883 0.0
-0.10916681 -0.10404914 0.0
-0.09722960 -0.10985028 0.0
-0.08465872 -0.11334128 0.0
-0.07171378 -0.11425364 0.0
-0.05870206 -0.11234466 0.0
-0.04597793 -0.10741293 0.0
-0.03393959 -0.09931518 0.0
-0.02302263 -0.08798360 0.0
-0.01369050 -0.07344217 0.0
-0.00642208 -0.05582083 0.0
-0.00169684 -0.03536587 0.0
0.00000000 -0.01432737 0.0
-0.00184931 0.01433117 0.0
-0.00699624 0.04047822 0.0
-0.01487920 0.06359833 0.0
-0.02495491 0.08332682 0.0
-0.03668651 0.09943953 0.0
-0.04956082 0.11184355 0.0
-0.06310235 0.12056272 0.0
-0.07688342 0.12571916 0.0
-0.09053026 0.12751287 0.0
-0.10372536 0.12620095 0.0
-0.11620653 0.12207796 0.0
-0.12776340 0.11545852 0.0
-0.13823209 0.10666284 0.0
-0.14748884 0.09600556 0.0
-0.15544315 0.08378797 0.0
-0.16203107 0.07029328 0.0
-0.16720892 0.05578485 0.0
-0.17094797 0.04050675 0.0
-0.17323004 0.02468626 0.0
-0.17404436 0.00853794 0.0
-0.17338563 -0.00773134 0.0
-0.17125347 -0.02391670 0.0
-0.16765317 -0.03980941 0.0
-0.16259773 -0.05519121 0.0
-0.15611125 -0.06982939 0.0
-0.14823346 -0.08347291 0.0
-0.13902539 -0.09585010 0.0
-0.12857578 -0.10666844 0.0
-0.11700805 -0.11561687 0.0
-0.10448734 -0.12237100 0.0
-0.09122700 -0.12660162 0.0
-0.07749391 -0.12798673 0.0
-0.06361182 -0.12622675 0.0
-0.04996193 -0.12106282 0.0
-0.03698001 -0.11229709 0.0
-0.02514967 -0.09981394 0.0
-0.01499131 -0.08360053 0.0
-0.00704740 -0.06376474 0.0
-0.00186437 -0.04054890 0.0
0.00000000 -0.01639303 0.0
-0.00202744 0.01639771 0.0
-0.00765930 0.04611009 0.0
-0.01624990 0.07218892 0.0
-0.02718000 0.09425693 0.0
-0.03984187 0.11210139 0.0
-0.05366023 0.12566191 0.0