# vtk DataFile Version 4.0
2D velocity field
ASCII
DATASET STRUCTURED_GRID
DIMENSIONS 40 40 1
POINTS 1600 float
0.00000000 0.00000000 1.0
1.00000000 0.00000000 1.0
2.00000000 0.00000000 1.0
3.00000000 0.00000000 1.0
4.00000000 0.00000000 1.0
5.00000000 0.00000000 1.0
6.00000000 0.00000000 1.0
7.00000000 0.00000000 1.0
8.00000000 0.00000000 1.0
9.00000000 0.00000000 1.0
10.00000000 0.00000000 1.0
11.00000000 0.00000000 1.0
12.00000000 0.00000000 1.0
13.00000000 0.00000000 1.0
14.00000000 0.00000000 1.0
15.00000000 0.00000000 1.0
16.00000000 0.00000000 1.0
17.00000000 0.00000000 1.0
18.00000000 0.00000000 1.0
19.00000000 0.00000000 1.0
20.00000000 0.00000000 1.0
21.00000000 0.00000000 1.0
22.00000000 0.00000000 1.0
23.00000000 0.00000000 1.0
24.00000000 0.00000000 1.0
25.00000000 0.00000000 1.0
26.00000000 0.00000000 1.0
27.00000000 0.00000000 1.0
28.00000000 0.00000000 1.0
29.00000000 0.00000000 1.0
30.00000000 0.00000000 1.0
31.00000000 0.00000000 1.0
32.00000000 0.00000000 1.0
33.00000000 0.00000000 1.0
34.00000000 0.00000000 1.0
35.00000000 0.00000000 1.0
36.00000000 0.00000000 1.0
37.00000000 0.00000000 1.0
38.00000000 0.00000000 1.0
39.00000000 0.00000000 1.0
0.00000000 1.00000000 1.0
1.00000000 1.00000000 1.0
2.00000000 1.00000000 1.0
3.00000000 1.00000000 1.0
4.00000000 1.00000000 1.0
5.00000000 1.00000000 1.0
6.00000000 1.00000000 1.0
7.00000000 1.00000000 1.0
8.00000000 1.00000000 1.0
9.00000000 1.00000000 1.0
10.00000000 1.00000000 1.0
11.00000000 1.00000000 1.0
12.00000000 1.00000000 1.0
13.00000000 1.00000000 1.0
14.00000000 1.00000000 1.0
15.00000000 1.00000000 1.0
16.00000000 1.00000000 1.0
17.00000000 1.00000000 1.0
18.00000000 1.00000000 1.0
19.00000000 1.00000000 1.0
20.00000000 1.00000000 1.0
21.00000000 1.00000000 1.0
22.00000000 1.00000000 1.0
23.00000000 1.00000000 1.0
24.00000000 1.00000000 1.0
25.00000000 1.00000000 1.0
26.00000000 1.00000000 1.0
27.00000000 1.00000000 1.0
28.00000000 1.00000000 1.0
29.00000000 1.00000000 1.0
30.00000000 1.00000000 1.0
31.00000000 1.00000000 1.0
32.00000000 1.00000000 1.0
33.00000000 1.00000000 1.0
34.00000000 1.00000000 1.0
35.00000000 1.00000000 1.0
36.00000000 1.00000000 1.0
37.00000000 1.00000000 1.0
38.00000000 1.00000000 1.0
39.00000000 1.00000000 1.0
0.00000000 2.00000000 1.0
1.00000000 2.00000000 1.0
2.00000000 2.00000000 1.0
3.00000000 2.00000000 1.0
4.00000000 2.00000000 1.0
5.00000000 2.00000000 1.0
6.00000000 2.00000000 1.0
7.00000000 2.00000000 1.0
8.00000000 2.00000000 1.0
9.00000000 2.00000000 1.0
10.00000000 2.00000000 1.0
11.00000000 2.00000000 1.0
12.00000000 2.00000000 1.0
13.00000000 2.00000000 1.0
14.00000000 2.00000000 1.0
15.00000000 2.00000000 1.0
16.00000000 2.00000000 1.0
17.00000000 2.00000000 1.0
18.00000000 2.00000000 1.0
19.00000000 2.00000000 1.0
20.00000000 2.00000000 1.0
21.00000000 2.00000000 1.0
22.00000000 2.00000000 1.0
23.00000000 2.00000000 1.0
24.00000000 2.00000000 1.0
25.00000000 2.00000000 1.0
26.00000000 2.00000000 1.0
27.00000000 2.00000000 1.0
28.00000000 2.00000000 1.0
29.00000000 2.00000000 1.0
30.00000000 2.00000000 1.0
31.00000000 2.00000000 1.0
32.00000000 2.00000000 1.0
33.00000000 2.00000000 1.0
34.00000000 2.00000000 1.0
35.00000000 2.00000000 1.0
36.00000000 2.00000000 1.0
37.00000000 2.00000000 1.0
38.00000000 2.00000000 1.0
39.00000000 2.00000000 1.0
0.00000000 3.00000000 1.0
1.00000000 3.00000000 1.0
2.00000000 3.00000000 1.0
3.00000000 3.00000000 1.0
4.00000000 3.00000000 1.0
5.00000000 3.00000000 1.0
6.00000000 3.00000000 1.0
7.00000000 3.00000000 1.0
8.00000000 3.00000000 1.0
9.00000000 3.00000000 1.0
10.00000000 3.00000000 1.0
11.00000000 3.00000000 1.0
12.00000000 3.00000000 1.0
13.00000000 3.00000000 1.0
14.00000000 3.00000000 1.0
15.00000000 3.00000000 1.0
16.00000000 3.00000000 1.0
17.00000000 3.00000000 1.0
18.00000000 3.00000000 1.0
19.00000000 3.00000000 1.0
20.00000000 3.00000000 1.0
21.00000000 3.00000000 1.0
22.00000000 3.00000000 1.0
23.00000000 3.00000000 1.0
24.00000000 3.00000000 1.0
25.00000000 3.00000000 1.0
26.00000000 3.00000000 1.0
27.00000000 3.00000000 1.0
28.00000000 3.00000000 1.0
29.00000000 3.00000000 1.0
30.00000000 3.00000000 1.0
31.00000000 3.00000000 1.0
32.00000000 3.00000000 1.0
33.00000000 3.00000000 1.0
34.00000000 3.00000000 1.0
35.00000000 3.00000000 1.0
36.00000000 3.00000000 1.0
37.00000000 3.00000000 1.0
38.00000000 3.00000000 1.0
39.00000000 3.00000000 1.0
0.00000000 4.00000000 1.0
1.00000000 4.00000000 1.0
2.00000000 4.00000000 1.0
3.00000000 4.00000000 1.0
4.00000000 4.00000000 1.0
5.00000000 4.00000000 1.0
6.00000000 4.00000000 1.0
7.00000000 4.00000000 1.0
8.00000000 4.00000000 1.0
9.00000000 4.00000000 1.0
10.00000000 4.00000000 1.0
11.00000000 4.00000000 1.0
12.00000000 4.00000000 1.0
13.00000000 4.00000000 1.0
14.00000000 4.00000000 1.0
15.00000000 4.00000000 1.0
16.00000000 4.00000000 1.0
17.00000000 4.00000000 1.0
18.00000000 4.00000000 1.0
19.00000000 4.00000000 1.0
20.00000000 4.00000000 1.0
21.00000000 4.00000000 1.0
22.00000000 4.00000000 1.0
23.00000000 4.00000000 1.0
24.00000000 4.00000000 1.0
25.00000000 4.00000000 1.0
26.00000000 4.00000000 1.0
27.00000000 4.00000000 1.0
28.00000000 4.00000000 1.0
29.00000000 4.00000000 1.0
30.00000000 4.00000000 1.0
31.00000000 4.00000000 1.0
32.00000000 4.00000000 1.0
33.00000000 4.00000000 1.0
34.00000000 4.00000000 1.0
35.00000000 4.00000000 1.0
36.00000000 4.00000000 1.0
37.00000000 4.00000000 1.0
38.00000000 4.00000000 1.0
39.00000000 4.00000000 1.0
0.00000000 5.00000000 1.0
1.00000000 5.00000000 1.0
2.00000000 5.00000000 1.0
3.00000000 5.00000000 1.0
4.00000000 5.00000000 1.0
5.00000000 5.00000000 1.0
6.00000000 5.00000000 1.0
7.00000000 5.00000000 1.0
8.00000000 5.00000000 1.0
9.00000000 5.00000000 1.0
10.00000000 5.00000000 1.0
11.00000000 5.00000000 1.0
12.00000000 5.00000000 1.0
13.00000000 5.00000000 1.0
14.00000000 5.00000000 1.0
15.00000000 5.00000000 1.0
16.00000000 5.00000000 1.0
17.00000000 5.00000000 1.0
18.00000000 5.00000000 1.0
19.00000000 5.00000000 1.0
20.00000000 5.00000000 1.0
21.00000000 5.00000000 1.0
22.00000000 5.00000000 1.0
23.00000000 5.00000000 1.0
24.00000000 5.00000000 1.0
25.00000000 5.00000000 1.0
26.00000000 5.00000000 1.0
27.00000000 5.00000000 1.0
28.00000000 5.00000000 1.0
29.00000000 5.00000000 1.0
30.00000000 5.00000000 1.0
31.00000000 5.00000000 1.0
32.00000000 5.00000000 1.0
33.00000000 5.00000000 1.0
34.00000000 5.00000000 1.0
35.00000000 5.00000000 1.0
36.00000000 5.00000000 1.0
37.00000000 5.00000000 1.0
38.00000000 5.00000000 1.0
39.00000000 5.00000000 1.0
0.00000000 6.00000000 1.0
1.00000000 6.00000000 1.0
2.00000000 6.00000000 1.0
3.00000000 6.00000000 1.0
4.00000000 6.00000000 1.0
5.00000000 6.00000000 1.0
6.00000000 6.00000000 1.0
7.00000000 6.00000000 1.0
8.00000000 6.00000000 1.0
9.00000000 6.00000000 1.0
10.00000000 6.00000000 1.0
11.00000000 6.00000000 1.0
12.00000000 6.00000000 1.0
13.00000000 6.00000000 1.0
14.00000000 6.00000000 1.0
15.00000000 6.00000000 1.0
16.00000000 6.00000000 1.0
17.00000000 6.00000000 1.0
18.00000000 6.00000000 1.0
19.00000000 6.00000000 1.0
20.00000000 6.00000000 1.0
21.00000000 6.00000000 1.0
22.00000000 6.00000000 1.0
23.00000000 6.00000000 1.0
24.00000000 6.00000000 1.0
25.00000000 6.00000000 1.0
26.00000000 6.00000000 1.0
27.00000000 6.00000000 1.0
28.00000000 6.00000000 1.0
29.00000000 6.00000000 1.0
30.00000000 6.00000000 1.0
31.00000000 6.00000000 1.0
32.00000000 6.00000000 1.0
33.00000000 6.00000000 1.0
34.00000000 6.00000000 1.0
35.00000000 6.00000000 1.0
36.00000000 6.00000000 1.0
37.00000000 6.00000000 1.0
38.00000000 6.00000000 1.0
39.00000000 6.00000000 1.0
0.00000000 7.00000000 1.0
1.00000000 7.00000000 1.0
2.00000000 7.00000000 1.0
3.00000000 7.00000000 1.0
4.00000000 7.00000000 1.0
5.00000000 7.00000000 1.0
6.00000000 7.00000000 1.0
7.00000000 7.00000000 1.0
8.00000000 7.00000000 1.0
9.00000000 7.00000000 1.0
10.00000000 7.00000000 1.0
11.00000000 7.00000000 1.0
12.00000000 7.00000000 1.0
13.00000000 7.00000000 1.0
14.00000000 7.00000000 1.0
15.00000000 7.00000000 1.0
16.00000000 7.00000000 1.0
17.00000000 7.00000000 1.0
18.00000000 7.00000000 1.0
19.00000000 7.00000000 1.0
20.00000000 7.00000000 1.0
21.00000000 7.00000000 1.0
22.00000000 7.00000000 1.0
23.00000000 7.00000000 1.0
24.00000000 7.00000000 1.0
25.00000000 7.00000000 1.0
26.00000000 7.00000000 1.0
27.00000000 7.00000000 1.0
28.00000000 7.00000000 1.0
29.00000000 7.00000000 1.0
30.00000000 7.00000000 1.0
31.00000000 7.00000000 1.0
32.00000000 7.00000000 1.0
33.00000000 7.00000000 1.0
34.00000000 7.00000000 1.0
35.00000000 7.00000000 1.0
36.00000000 7.00000000 1.0
37.00000000 7.00000000 1.0
38.00000000 7.00000000 1.0
39.00000000 7.00000000 1.0
0.00000000 8.00000000 1.0
1.00000000 8.00000000 1.0
2.00000000 8.00000000 1.0
3.00000000 8.00000000 1.0
4.00000000 8.00000000 1.0
5.00000000 8.00000000 1.0
6.00000000 8.00000000 1.0
7.00000000 8.00000000 1.0
8.00000000 8.00000000 1.0
9.00000000 8.00000000 1.0
10.00000000 8.00000000 1.0
11.00000000 8.00000000 1.0
12.00000000 8.00000000 1.0
13.00000000 8.00000000 1.0
14.00000000 8.00000000 1.0
15.00000000 8.00000000 1.0
16.00000000 8.00000000 1.0
17.00000000 8.00000000 1.0
18.00000000 8.00000000 1.0
19.00000000 8.00000000 1.0
20.00000000 8.00000000 1.0
21.00000000 8.00000000 1.0
22.00000000 8.00000000 1.0
23.00000000 8.00000000 1.0
24.00000000 8.00000000 1.0
25.00000000 8.00000000 1.0
26.00000000 8.00000000 1.0
27.00000000 8.00000000 1.0
28.00000000 8.00000000 1.0
29.00000000 8.00000000 1.0
30.00000000 8.00000000 1.0
31.00000000 8.00000000 1.0
32.00000000 8.00000000 1.0
33.00000000 8.00000000 1.0
34.00000000 8.00000000 1.0
35.00000000 8.00000000 1.0
36.00000000 8.00000000 1.0
37.00000000 8.00000000 1.0
38.00000000 8.00000000 1.0
39.00000000 8.00000000 1.0
0.00000000 9.00000000 1.0
1.00000000 9.00000000 1.0
2.00000000 9.00000000 1.0
3.00000000 9.00000000 1.0
4.00000000 9.00000000 1.0
5.00000000 9.00000000 1.0
6.00000000 9.00000000 1.0
7.00000000 9.00000000 1.0
8.00000000 9.00000000 1.0
[...]
POINT_DATA 1600
VECTORS velocity double
0.00000000 0.00003234 0.0
0.00000027 -0.00003248 0.0
0.00000052 -0.00001168 0.0
0.00000068 0.00005215 0.0
0.00000074 0.00012912 0.0
0.00000070 0.00020401 0.0
0.00000059 0.00026977 0.0
0.00000044 0.00032332 0.0
0.00000025 0.00036353 0.0
0.00000004 0.00039022 0.0
-0.00000018 0.00040377 0.0
-0.00000041 0.00040487 0.0
-0.00000062 0.00039443 0.0
-0.00000083 0.00037347 0.0
-0.00000102 0.00034311 0.0
-0.00000118 0.00030455 0.0
-0.00000132 0.00025899 0.0
-0.00000143 0.00020768 0.0
-0.00000151 0.00015188 0.0
-0.00000156 0.00009286 0.0
-0.00000158 0.00003188 0.0
-0.00000156 -0.00002978 0.0
-0.00000152 -0.00009084 0.0
-0.00000143 -0.00015003 0.0
-0.00000132 -0.00020604 0.0
-0.00000118 -0.00025759 0.0
-0.00000102 -0.00030340 0.0
-0.00000083 -0.00034219 0.0
-0.00000063 -0.00037271 0.0
-0.00000041 -0.00039376 0.0
-0.00000018 -0.00040419 0.0
0.00000004 -0.00040297 0.0
0.00000025 -0.00038921 0.0
0.00000044 -0.00036223 0.0
0.00000060 -0.00032169 0.0
0.00000070 -0.00026780 0.0
0.00000074 -0.00020175 0.0
0.00000068 -0.00012667 0.0
0.00000052 -0.00004967 0.0
0.00000026 0.00001397 0.0
0.00000000 0.00009843 0.0
0.00010836 -0.00009904 0.0
0.00008500 0.00002624 0.0
-0.00015112 0.00030387 0.0
-0.00063581 0.00063077 0.0
-0.00136428 0.00095091 0.0
-0.00230985 0.00123518 0.0
-0.00343459 0.00146909 0.0
-0.00469531 0.00164616 0.0
-0.00604717 0.00176447 0.0
-0.00744574 0.00182481 0.0
-0.00884846 0.00182970 0.0
-0.01021551 0.00178276 0.0
-0.01151038 0.00168838 0.0
-0.01270033 0.00155145 0.0
-0.01375668 0.00137724 0.0
-0.01465490 0.00117120 0.0
-0.01537485 0.00093897 0.0
-0.01590075 0.00068626 0.0
-0.01622126 0.00041882 0.0
-0.01632953 0.00014247 0.0
-0.01622316 -0.00013698 0.0
-0.01590428 -0.00041369 0.0
-0.01537952 -0.00068178 0.0
-0.01466004 -0.00093538 0.0
-0.01376150 -0.00116864 0.0
-0.01270408 -0.00137571 0.0
-0.01151234 -0.00155085 0.0
-0.01021517 -0.00168846 0.0
-0.00884557 -0.00178319 0.0
-0.00744034 -0.00183007 0.0
-0.00603964 -0.00182469 0.0
-0.00468633 -0.00176345 0.0
-0.00342507 -0.00164392 0.0
-0.00230084 -0.00146546 0.0
-0.00135682 -0.00123017 0.0
-0.00063077 -0.00094475 0.0
-0.00014899 -0.00062392 0.0
0.00008427 -0.00029704 0.0
0.00010559 -0.00002042 0.0
0.00000000 0.00010435 0.0
0.00003301 -0.00010551 0.0
-0.00021022 0.00026948 0.0
-0.00082742 0.00092106 0.0
-0.00186173 0.00166509 0.0
-0.00330424 0.00239343 0.0
-0.00511316 0.00304410 0.0
-0.00722703 0.00358296 0.0
-0.00957369 0.00399281 0.0
-0.01207625 0.00426703 0.0
-0.01465720 0.00440577 0.0
-0.01724117 0.00441367 0.0
-0.01975688 0.00429847 0.0
-0.02213849 0.00406999 0.0
-0.02432657 0.00373953 0.0
-0.02626875 0.00331942 0.0
-0.02792018 0.00282263 0.0
-0.02924383 0.00226262 0.0
-0.03021067 0.00165310 0.0
-0.03079983 0.00100798 0.0
-0.03099866 0.00034130 0.0
-0.03080281 -0.00033284 0.0
-0.03021620 -0.00100029 0.0
-0.02925111 -0.00164686 0.0
-0.02792814 -0.00225836 0.0
-0.02627612 -0.00282065 0.0
-0.02433209 -0.00331974 0.0
-0.02214105 -0.00374189 0.0
-0.01975565 -0.00407386 0.0
-0.01723575 -0.00430309 0.0
-0.01464767 -0.00441815 0.0
-0.01206322 -0.00440914 0.0
-0.00955827 -0.00426841 0.0
-0.00721070 -0.00399149 0.0
-0.00509760 -0.00357856 0.0
-0.00329110 -0.00303667 0.0
-0.00185234 -0.00238351 0.0
-0.00082250 -0.00165376 0.0
-0.00020958 -0.00090996 0.0
0.00003070 -0.00026071 0.0
0.00000000 -0.00002671 0.0
-0.00010653 0.00002526 0.0
-0.00066712 0.00083007 0.0
-0.00174896 0.00200291 0.0
-0.00337953 0.00329566 0.0
-0.00553756 0.00455145 0.0
-0.00816687 0.00567340 0.0
-0.01118799 0.00660408 0.0
-0.01450737 0.00731219 0.0
-0.01802432 0.00778399 0.0
-0.02163624 0.00801769 0.0
-0.02524244 0.00801986 0.0
-0.02874693 0.00780296 0.0
-0.03206054 0.00738360 0.0
-0.03510235 0.00678134 0.0
-0.03780078 0.00601785 0.0
-0.04009435 0.00511620 0.0
-0.04193216 0.00410043 0.0
-0.04327428 0.00299522 0.0
-0.04409196 0.00182566 0.0
-0.04436778 0.00061712 0.0
-0.04409572 -0.00060490 0.0
-0.04328126 -0.00181475 0.0
-0.04194135 -0.00298677 0.0
-0.04010438 -0.00409534 0.0
-0.03781007 -0.00511496 0.0
-0.03510930 -0.00602051 0.0
-0.03206373 -0.00678746 0.0
-0.02874530 -0.00739228 0.0
-0.02523545 -0.00781295 0.0
-0.02162398 -0.00802962 0.0
-0.01800752 -0.00802559 0.0
-0.01448739 -0.00778854 0.0
-0.01116666 -0.00731222 0.0
-0.00814629 -0.00659893 0.0
-0.00551980 -0.00566316 0.0
-0.00336629 -0.00453702 0.0
-0.00174118 -0.00327887 0.0
-0.00066468 -0.00198646 0.0
-0.00010804 -0.00081735 0.0
0.00000000 -0.00030891 0.0
-0.00026076 0.00030736 0.0
-0.00117584 0.00174515 0.0
-0.00276151 0.00358858 0.0
-0.00501383 0.00554797 0.0
-0.00789009 0.00742771 0.0
-0.01131622 0.00909953 0.0
-0.01519527 0.01048313 0.0
-0.01941533 0.01153226 0.0
-0.02385639 0.01222505 0.0
-0.02839584 0.01255714 0.0
-0.03291289 0.01253691 0.0
-0.03729194 0.01218201 0.0
-0.04142518 0.01151683 0.0
-0.04521446 0.01057063 0.0
-0.04857278 0.00937617 0.0
-0.05142520 0.00796863 0.0
-0.05370966 0.00638488 0.0
-0.05537736 0.00466292 0.0
-0.05639316 0.00284147 0.0
-0.05673576 0.00095972 0.0
-0.05639783 -0.00094283 0.0
-0.05538606 -0.00282652 0.0
-0.05372121 -0.00465163 0.0
-0.05143798 -0.00637856 0.0
-0.04858490 -0.00796803 0.0
-0.04522403 -0.00938138 0.0
-0.04143047 -0.01058103 0.0
-0.03729164 -0.01153111 0.0
-0.03290627 -0.01219832 0.0
-0.02838289 -0.01255299 0.0
-0.02383787 -0.01257061 0.0
-0.01939273 -0.01223369 0.0
-0.01517064 -0.01153431 0.0
-0.01129198 -0.01047759 0.0
-0.00786867 -0.00908647 0.0
-0.00499729 -0.00740840 0.0
-0.00275112 -0.00552504 0.0
-0.00117171 -0.00356586 0.0
-0.00026159 -0.00172748 0.0
0.00000000 -0.00073859 0.0
-0.00041147 0.00073708 0.0
-0.00168664 0.00302031 0.0
-0.00378729 0.00568923 0.0
-0.00667004 0.00843073 0.0
-0.01026383 0.01102150 0.0
-0.01447235 0.01330805 0.0
-0.01917937 0.01519016 0.0
-0.02425502 0.01660791 0.0
-0.02956178 0.01753181 0.0
-0.03495987 0.01795522 0.0
-0.04031173 0.01788877 0.0
-0.04548567 0.01735596 0.0
-0.05035878 0.01638993 0.0
-0.05481903 0.01503089 0.0
-0.05876703 0.01332416 0.0
-0.06211711 0.01131871 0.0
-0.06479825 0.00906602 0.0
-0.06675462 0.00661929 0.0
-0.06794597 0.00403282 0.0
-0.06834792 0.00136167 0.0
-0.06795207 -0.00133869 0.0
-0.06676607 -0.00401251 0.0
-0.06481368 -0.00660402 0.0
-0.06213461 -0.00905764 0.0
-0.05878437 -0.01131827 0.0
-0.05483394 -0.01333181 0.0
-0.05036913 -0.01504583 0.0
-0.04548981 -0.01641044 0.0
-0.04030861 -0.01737951 0.0
-0.03494928 -0.01791232 0.0
-0.02954437 -0.01797553 0.0
-0.02423228 -0.01754578 0.0
-0.01915351 -0.01661307 0.0
-0.01444605 -0.01518505 0.0
-0.01023990 -0.01329262 0.0
-0.00665096 -0.01099735 0.0
-0.00377475 -0.00840124 0.0
-0.00168111 -0.00565951 0.0
-0.00041177 -0.00299682 0.0
0.00000000 -0.00130707 0.0
-0.00055341 0.00130570 0.0
-0.00218058 0.00464749 0.0
-0.00479257 0.00830123 0.0
-0.00830407 0.01194222 0.0
-0.01261149 0.01532892 0.0
-0.01759256 0.01828912 0.0
-0.02310937 0.02070697 0.0
-0.02901305 0.02251159 0.0
-0.03514885 0.02366761 0.0
-0.04136103 0.02416740 0.0
-0.04749716 0.02402490 0.0
-0.05341179 0.02327059 0.0
-0.05896939 0.02194753 0.0
-0.06404661 0.02010811 0.0
-0.06853406 0.01781161 0.0
-0.07233755 0.01512219 0.0
-0.07537899 0.01210746 0.0
-0.07759704 0.00883734 0.0
-0.07894749 0.00538327 0.0
-0.07940352 0.00181770 0.0
-0.07895589 -0.00178632 0.0
-0.07761298 -0.00535542 0.0
-0.07540081 -0.00881619 0.0
-0.07236297 -0.01209547 0.0
-0.06856042 -0.01512082 0.0
-0.06407109 -0.01782114 0.0
-0.05898933 -0.02012759 0.0
-0.05342499 -0.02197478 0.0
-0.04750210 -0.02330240 0.0
-0.04135711 -0.02405732 0.0
-0.03513646 -0.02419617 0.0
-0.02899358 -0.02368866 0.0
-0.02308509 -0.02252156 0.0
-0.01756639 -0.02070375 0.0
-0.01258663 -0.01827239 0.0
-0.00828349 -0.01530048 0.0
-0.00477852 -0.01190622 0.0
-0.00217397 -0.00826406 0.0
-0.00055328 -0.00461750 0.0
0.00000000 -0.00200573 0.0
-0.00068641 0.00200458 0.0
-0.00265372 0.00661479 0.0
-0.00576777 0.01141528 0.0
-0.00990183 0.01607629 0.0
-0.01491779 0.02034488 0.0
-0.02066474 0.02403607 0.0
-0.02698077 0.02702300 0.0
-0.03369649 0.02922731 0.0
-0.04063931 0.03061043 0.0
-0.04763778 0.03116586 0.0
-0.05452552 0.03091264 0.0
-0.06114473 0.02988981 0.0
-0.06734899 0.02815179 0.0
-0.07300551 0.02576463 0.0
-0.07799680 0.02280290 0.0
-0.08222192 0.01934732 0.0
-0.08559733 0.01548287 0.0
-0.08805746 0.01129747 0.0
-0.08955509 0.00688090 0.0
-0.09006158 0.00232419 0.0
-0.08956701 -0.00228089 0.0
-0.08808026 -0.00684218 0.0
-0.08562900 -0.01126745 0.0
-0.08225968 -0.01546479 0.0
-0.07803735 -0.01934316 0.0
-0.07304531 -0.02281318 0.0
-0.06738463 -0.02578828 0.0
-0.06117322 -0.02818618 0.0
-0.05454464 -0.02993098 0.0
-0.04764632 -0.03095565 0.0
-0.04063720 -0.03120529 0.0
-0.03368486 -0.03064100 0.0
-0.02696187 -0.02924455 0.0
-0.02064169 -0.02702394 0.0
-0.01489418 -0.02401990 0.0
-0.00988123 -0.02031344 0.0
-0.00575306 -0.01603438 0.0
-0.00264644 -0.01137068 0.0
-0.00068599 -0.00657795 0.0
0.00000000 -0.00282784 0.0
-0.00081223 0.00282696 0.0
-0.00310900 0.00891156 0.0
-0.00671583 0.01502211 0.0
-0.01146616 0.02082662 0.0
-0.01718659 0.02606531 0.0
-0.02369578 0.03054526 0.0
-0.03080587 0.03413309 0.0
-0.03832539 0.03674682 0.0
-0.04606292 0.03834797 0.0
-0.05383100 0.03893393 0.0
-0.06144963 0.03853127 0.0
-0.06874949 0.03718966 0.0
-0.07557447 0.03497678 0.0
-0.08178376 0.03197392 0.0
-0.08725330 0.02827244 0.0
-0.09187689 0.02397090 0.0
-0.09556686 0.01917285 0.0
-0.09825458 0.01398519 0.0
-0.09989066 0.00851698 0.0
-0.10044516 0.00287869 0.0
-0.09990763 -0.00281842 0.0
-0.09828723 -0.00846258 0.0
-0.09561273 -0.01394195 0.0
-0.09193253 -0.01914499 0.0
-0.08731457 -0.02396111 0.0
-0.08184616 -0.02828159 0.0
-0.07563354 -0.03200090 0.0
-0.06880119 -0.03501854 0.0
-0.06149074 -0.03724143 0.0
-0.05385941 -0.03858698 0.0
-0.04607788 -0.03898682 0.0
-0.03832757 -0.03839131 0.0
-0.03079735 -0.03677476 0.0
-0.02367981 -0.03414148 0.0
-0.01716717 -0.03053253 0.0
-0.01144752 -0.02603310 0.0
-0.00670165 -0.02078025 0.0
-0.00310160 -0.01497073 0.0
-0.00081166 -0.00886790 0.0
0.00000000 -0.00376905 0.0
-0.00093314 0.00376850 0.0
-0.00355222 0.01153065 0.0
-0.00764570 0.01911558 0.0
-0.01300866 0.02618958 0.0
-0.01943220 0.03248884 0.0
-0.02670329 0.03781635 0.0
-0.03460648 0.04203628 0.0
-0.04292676 0.04506710 0.0
-0.05145285 0.04687406 0.0
-0.05998073 0.04746181 0.0
-0.06831682 0.04686736 0.0
-0.07628078 0.04515363 0.0
-0.08370774 0.04240374 0.0
-0.09045000 0.03871618 0.0
-0.09637824 0.03420068 0.0
-0.10138230 0.02897496 0.0
-0.10537164 0.02316219 0.0
-0.10827556 0.01688911 0.0
-0.11004332 0.01028474 0.0
-0.11064412 0.00347949 0.0
-0.11006716 -0.00339538 0.0
-0.10832165 -0.01020808 0.0
-0.10543693 -0.01682667 0.0
-0.10146249 -0.02311943 0.0
-0.09646810 -0.02895550 0.0
-0.09054378 -0.03420591 0.0
-0.08379962 -0.03874506 0.0
-0.07636534 -0.04245282 0.0
-0.06838947 -0.04521729 0.0
-0.06003816 -0.04693829 0.0
-0.05149330 -0.04753168 0.0
-0.04295021 -0.04693439 0.0
-0.03461466 -0.04511031 0.0
-0.02669946 -0.04205668 0.0
-0.01942078 -0.03781121 0.0
-0.01299459 -0.03245929 0.0
-0.00763360 -0.02614124 0.0
-0.00354544 -0.01905888 0.0
-0.00093262 -0.01148072 0.0
0.00000000 -0.00482746 0.0
-0.00105148 0.00482730 0.0
-0.00399009 0.01446926 0.0
-0.00856869 0.02369418 0.0
-0.01454488 0.03216578 0.0
-0.02167389 0.03961785 0.0
-0.02970993 0.04585238 0.0
-0.03840859 0.05073495 0.0
-0.04752995 0.05418846 0.0
-0.05684187 0.05618598 0.0
-0.06612324 0.05674319 0.0
-0.07516686 0.05591098 0.0
-0.08378178 0.05376855 0.0
-0.09179516 0.05041712 0.0
-0.09905352 0.04597453 0.0
-0.10542348 0.04057064 0.0
-0.11079221 0.03434369 0.0
-0.11506745 0.02743743 0.0
-0.11817750 0.01999915 0.0
-0.12007098 0.01217822 0.0
-0.12071676 0.00412526 0.0
-0.12010379 -0.00400835 0.0
-0.11824114 -0.01207072 0.0
-0.11515816 -0.01990966 0.0
-0.11090462 -0.02737297 0.0
-0.10555103 -0.03430909 0.0
-0.09918890 -0.04056805 0.0
-0.09193083 -0.04600313 0.0
-0.08391053 -0.05047312 0.0
-0.07528237 -0.05384545 0.0
-0.06622060 -0.05600006 0.0
-0.05691797 -0.05683431 0.0
-0.04758375 -0.05626861 0.0
-0.03844123 -0.05425283 0.0
-0.02972455 -0.05077337 0.0
-0.02167525 -0.04586051 0.0
-0.01453867 -0.03959586 0.0
-0.00856066 -0.03211925 0.0
-0.00398487 -0.02363467 0.0
-0.00105128 -0.01441431 0.0
0.00000000 -0.00600344 0.0
-0.00116942 0.00600371 0.0
-0.00442929 0.01772912 0.0
-0.00949663 0.02876151 0.0
-0.01609147 0.03876062 0.0
-0.02393243 0.04745881 0.0
-0.03273973 0.05465968 0.0
-0.04223864 0.06023386 0.0
-0.05216314 0.06411295 0.0
-0.06225930 0.06628214 0.0
-0.07228849 0.06677238 0.0
-0.08202992 0.06565241 0.0
-0.09128257 0.06302119 0.0
-0.09986650 0.05900106 0.0
-0.10762360 0.05373163 0.0
-0.11441776 0.04736481 0.0
-0.12013480 0.04006072 0.0
-0.12468201 0.03198465 0.0
-0.12798774 0.02330488 0.0
-0.13000083 0.01419131 0.0
-0.13069027 0.00481470 0.0
-0.13004492 -0.00465370 0.0
-0.12807352 -0.01404212 0.0
-0.12480483 -0.02317834 0.0
-0.12028803 -0.03188977 0.0
-0.11459324 -0.04000388 0.0
-0.10781211 -0.04734918 0.0
-0.10005842 -0.05375682 0.0
-0.09146849 -0.05906306 0.0
-0.08220135 -0.06311259 0.0
-0.07243846 -0.06576294 0.0
-0.06238293 -0.06688985 0.0
-0.05225802 -0.06639352 0.0
-0.04230500 -0.06420584 0.0
-0.03278037 -0.06029800 0.0
-0.02395235 -0.05468853 0.0
-0.01609718 -0.04745103 0.0
-0.00949514 -0.03872130 0.0
-0.00442681 -0.02870299 0.0
-0.00116986 -0.01767126 0.0
0.00000000 -0.00729938 0.0
-0.00128890 0.00730011 0.0
-0.00487607 0.02131630 0.0
-0.01044091 0.03432635 0.0
-0.01766471 0.04598442 0.0
-0.02622806 0.05602217 0.0
-0.03581567 0.06424729 0.0
-0.04612105 0.07053924 0.0
-0.05685084 0.07484273 0.0
-0.06772859 0.07715990 0.0
-0.07849791 0.07754170 0.0
-0.08892466 0.07607916 0.0
-0.09879849 0.07289502 0.0
-0.10793351 0.06813608 0.0
-0.11616835 0.06196647 0.0
-0.12336572 0.05456218 0.0
-0.12941160 0.04610660 0.0
-0.13421428 0.03678732 0.0
-0.13770333 0.02679393 0.0
-0.13982874 0.01631673 0.0
-0.14056019 0.00554614 0.0
-0.13988662 -0.00532727 0.0
-0.13781618 -0.01611256 0.0
-0.13437644 -0.02661808 0.0
-0.12961500 -0.03665121 0.0
-0.12360030 -0.04601858 0.0
-0.11642267 -0.05452680 0.0
-0.10819545 -0.06198404 0.0
-0.09905602 -0.06820249 0.0
-0.08916663 -0.07300198 0.0
-0.07871483 -0.07621474 0.0
-0.06791333 -0.07769135 0.0
-0.05699914 -0.07730771 0.0
-0.04623188 -0.07497310 0.0
-0.03589121 -0.07063867 0.0
-0.02627341 -0.06430633 0.0
-0.01768718 -0.05603726 0.0
-0.01044894 -0.04595954 0.0
-0.00487779 -0.03427414 0.0
-0.00129039 -0.02125866 0.0
0.00000000 -0.00871947 0.0
-0.00141164 0.00872074 0.0
-0.00533619 0.02524085 0.0
-0.01141211 0.04040226 0.0
-0.01927970 0.05385201 0.0
-0.02857937 0.06532183 0.0
-0.03895827 0.07462620 0.0
-0.05007645 0.08165742 0.0
-0.06161202 0.08637831 0.0
-0.07326542 0.08881330 0.0
-0.08476244 0.08903872 0.0
-0.09585624 0.08717296 0.0
-0.10632825 0.08336703 0.0
-0.11598813 0.07779595 0.0
-0.12467302 0.07065136 0.0
-0.13224630 0.06213546 0.0
-0.13859597 0.05245628 0.0
-0.14363298 0.04182433 0.0
-0.14728958 0.03045053 0.0
-0.14951794 0.01854508 0.0
-0.15028906 0.00631727 0.0
-0.14959220 -0.00602413 0.0
-0.14743463 -0.01827013 0.0
-0.14384205 -0.03021066 0.0
-0.13885933 -0.04163393 0.0
-0.13255176 -0.05232615 0.0
-0.12500661 -0.06207195 0.0
-0.11633486 -0.07065579 0.0
-0.10667302 -0.07786433 0.0
-0.09618474 -0.08349026 0.0
-0.08506211 -0.08733737 0.0
-0.07352634 -0.08922712 0.0
-0.06182761 -0.08900645 0.0
-0.05024393 -0.08655678 0.0
-0.03907887 -0.08180372 0.0
-0.02865807 -0.07472713 0.0
-0.01932458 -0.06537076 0.0
-0.01143316 -0.05385096 0.0
-0.00534382 -0.04036348 0.0
-0.00141468 -0.02518781 0.0
0.00000000 -0.01026962 0.0
-0.00153920 0.01027148 0.0
-0.00581491 0.02951655 0.0
-0.01241992 0.04700728 0.0
-0.02095018 0.06238227 0.0
-0.03100277 0.07537442 0.0
-0.04218471 0.08580814 0.0
-0.05412059 0.09359330 0.0
-0.06645875 0.09871647 0.0
-0.07887603 0.10123057 0.0
-0.09108077 0.10124346 0.0
-0.10281446 0.09890666 0.0
-0.11385191 0.09440449 0.0
-0.12400037 0.08794441 0.0
-0.13309778 0.07974877 0.0
-0.14101053 0.07004821 0.0
-0.14763088 0.05907663 0.0
-0.15287446 0.04706792 0.0
-0.15667788 0.03425395 0.0
-0.15899675 0.02086394 0.0
-0.15980419 0.00712471 0.0
-0.15908998 -0.00673835 0.0
-0.15686026 -0.02049985 0.0
-0.15313801 -0.03393291 0.0
-0.14796408 -0.04680786 0.0
-0.14139888 -0.05889136 0.0
-0.13352448 -0.06994634 0.0
-0.12444722 -0.07973305 0.0
-0.11430029 -0.08801126 0.0
-0.10324641 -0.09454414 0.0
-0.09148012 -0.09910366 0.0
-0.07922948 -0.10147776 0.0
-0.06675681 -0.10147912 0.0
-0.05435822 -0.09895536 0.0
-0.04236175 -0.09380020 0.0
-0.03112378 -0.08596510 0.0
-0.02102389 -0.07547065 0.0
-0.01245804 -0.06241681 0.0
-0.00583045 -0.04699107 0.0
-0.00154437 -0.02947389 0.0
0.00000000 -0.01195724 0.0
-0.00167304 0.01195976 0.0
-0.00631712 0.03416063 0.0
-0.01347330 0.05416346 0.0
-0.02268847 0.07159744 0.0
-0.03351235 0.08619829 0.0
-0.04550849 0.09780428 0.0
-0.05826364 0.10634845 0.0
-0.07139510 0.11184793 0.0
-0.08455583 0.11439130 0.0
-0.09743753 0.11412516 0.0
-0.10977161 0.11124074 0.0
-0.12132853 0.10596141 0.0
-0.13191583 0.09853171 0.0
-0.14137515 0.08920810 0.0
-0.14957882 0.07825187 0.0
-0.15642612 0.06592394 0.0
-0.16183981 0.05248160 0.0
-0.16576284 0.03817699 0.0
-0.16815577 0.02325687 0.0
-0.16899476 0.00796370 0.0
-0.16827040 -0.00746271 0.0
-0.16598739 -0.02278286 0.0
-0.16216504 -0.03775526 0.0
-0.15683865 -0.05213425 0.0
-0.15006168 -0.06566833 0.0
-0.14190854 -0.07809949 0.0
-0.13247802 -0.08916356 0.0
-0.12189702 -0.09859226 0.0
-0.11032432 -0.10611684 0.0
-0.09795413 -0.11147385 0.0
-0.08501902 -0.11441287 0.0
-0.07179181 -0.11470633 0.0
-0.05858600 -0.11216118 0.0
-0.04575438 -0.10663181 0.0
-0.03368556 -0.09803392 0.0
-0.02279820 -0.08635802 0.0
-0.01353302 -0.07168198 0.0
-0.00634285 -0.05418125 0.0
-0.00168099 -0.03413575 0.0
0.00000000 -0.01379133 0.0
-0.00181454 0.01379458 0.0
-0.00684759 0.03919368 0.0
-0.01458072 0.06189660 0.0
-0.02450582 0.08152254 0.0
-0.03611999 0.09781247 0.0
-0.04893921 0.11062350 0.0
-0.06250963 0.11991887 0.0
-0.07641613 0.12575443 0.0
-0.09028795 0.12826311 0.0
-0.10380141 0.12763862 0.0
-0.11668020 0.12411953 0.0
-0.12869351 0.11797473 0.0
-0.13965268 0.10949088 0.0
-0.14940676 0.09896217 0.0
-0.15783760 0.08668271 0.0
-0.16485488 0.07294122 0.0
-0.17039137 0.05801809 0.0
-0.17439877 0.04218439 0.0
-0.17684432 0.02570242 0.0
-0.17770827 0.00882765 0.0
-0.17698242 -0.00818855 0.0
-0.17466966 -0.02509562 0.0
-0.17078458 -0.04164035 0.0
-0.16535516 -0.05756367 0.0
-0.15842548 -0.07259801 0.0
-0.15005932 -0.08646565 0.0
-0.14034452 -0.09887836 0.0
-0.12939795 -0.10953884 0.0
-0.11737061 -0.11814418 0.0
-0.10445277 -0.12439169 0.0
-0.09087834 -0.12798730 0.0
-0.07692823 -0.12865644 0.0
-0.06293199 -0.12615741 0.0
-0.04926718 -0.12029663 0.0
-0.03635608 -0.11094502 0.0
-0.02465942 -0.09805468 0.0
-0.01466708 -0.08167431 0.0
-0.00688604 -0.06196229 0.0
-0.00182602 -0.03919577 0.0
0.00000000 -0.01578246 0.0
-0.00196516 0.01578654 0.0
-0.00741116 0.04463967 0.0
-0.01575061 0.07023605 0.0
-0.02641279 0.09218472 0.0
-0.03883565 0.11023533 0.0
-0.05248258 0.12427043 0.0
-0.06685595 0.13429224 0.0
-0.08150696 0.14040544 0.0
-0.09604161 0.14279776 0.0
-0.11012295 0.14171996 0.0
-0.12347022 0.13746680 0.0
-0.13585543 0.13035994 0.0
-0.14709821 0.12073366 0.0
-0.15705962 0.10892358 0.0
-0.16563545 0.09525854 0.0
-0.17274974 0.08005551 0.0
-0.17834874 0.06361709 0.0
-0.18239562 0.04623127 0.0
-0.18486633 0.02817312 0.0
-0.18574645 0.00970778 0.0
-0.18502943 -0.00890557 0.0
-0.18271595 -0.02740910 0.0
-0.17881468 -0.04554161 0.0
-0.17334431 -0.06303404 0.0
-0.16633678 -0.07960554 0.0
-0.15784174 -0.09496069 0.0
-0.14793201 -0.10878808 0.0
-0.13670988 -0.12076096 0.0
-0.12431388 -0.13054018 0.0
-0.11092562 -0.13777996 0.0
-0.09677614 -0.14213678 0.0
-0.08215106 -0.14328152 0.0
-0.06739384 -0.14091463 0.0
-0.05290631 -0.13478416 0.0
-0.03914584 -0.12470549 0.0
-0.02661863 -0.11058188 0.0
-0.01586904 -0.09242390 0.0
-0.00746512 -0.07036622 0.0
-0.00198100 -0.04467989 0.0
0.00000000 -0.01794300 0.0
-0.00212652 0.01794801 0.0
-0.00801312 0.05052628 0.0
-0.01699184 0.07921477 0.0
-0.02841982 0.10361270 0.0
-0.04166777 0.12348328 0.0
-0.05614046 0.13874311 0.0