# vtk DataFile Version 4.0
2D velocity field
ASCII
DATASET STRUCTURED_GRID
DIMENSIONS 40 40 1
POINTS 1600 float
0.00000000 0.00000000 1.0
1.00000000 0.00000000 1.0
2.00000000 0.00000000 1.0
3.00000000 0.00000000 1.0
4.00000000 0.00000000 1.0
5.00000000 0.00000000 1.0
6.00000000 0.00000000 1.0
7.00000000 0.00000000 1.0
8.00000000 0.00000000 1.0
9.00000000 0.00000000 1.0
10.00000000 0.00000000 1.0
11.00000000 0.00000000 1.0
12.00000000 0.00000000 1.0
13.00000000 0.00000000 1.0
14.00000000 0.00000000 1.0
15.00000000 0.00000000 1.0
16.00000000 0.00000000 1.0
17.00000000 0.00000000 1.0
18.00000000 0.00000000 1.0
19.00000000 0.00000000 1.0
20.00000000 0.00000000 1.0
21.00000000 0.00000000 1.0
22.00000000 0.00000000 1.0
23.00000000 0.00000000 1.0
24.00000000 0.00000000 1.0
25.00000000 0.00000000 1.0
26.00000000 0.00000000 1.0
27.00000000 0.00000000 1.0
28.00000000 0.00000000 1.0
29.00000000 0.00000000 1.0
30.00000000 0.00000000 1.0
31.00000000 0.00000000 1.0
32.00000000 0.00000000 1.0
33.00000000 0.00000000 1.0
34.00000000 0.00000000 1.0
35.00000000 0.00000000 1.0
36.00000000 0.00000000 1.0
37.00000000 0.00000000 1.0
38.00000000 0.00000000 1.0
39.00000000 0.00000000 1.0
0.00000000 1.00000000 1.0
1.00000000 1.00000000 1.0
2.00000000 1.00000000 1.0
3.00000000 1.00000000 1.0
4.00000000 1.00000000 1.0
5.00000000 1.00000000 1.0
6.00000000 1.00000000 1.0
7.00000000 1.00000000 1.0
8.00000000 1.00000000 1.0
9.00000000 1.00000000 1.0
10.00000000 1.00000000 1.0
11.00000000 1.00000000 1.0
12.00000000 1.00000000 1.0
13.00000000 1.00000000 1.0
14.00000000 1.00000000 1.0
15.00000000 1.00000000 1.0
16.00000000 1.00000000 1.0
17.00000000 1.00000000 1.0
18.00000000 1.00000000 1.0
19.00000000 1.00000000 1.0
20.00000000 1.00000000 1.0
21.00000000 1.00000000 1.0
22.00000000 1.00000000 1.0
23.00000000 1.00000000 1.0
24.00000000 1.00000000 1.0
25.00000000 1.00000000 1.0
26.00000000 1.00000000 1.0
27.00000000 1.00000000 1.0
28.00000000 1.00000000 1.0
29.00000000 1.00000000 1.0
30.00000000 1.00000000 1.0
31.00000000 1.00000000 1.0
32.00000000 1.00000000 1.0
33.00000000 1.00000000 1.0
34.00000000 1.00000000 1.0
35.00000000 1.00000000 1.0
36.00000000 1.00000000 1.0
37.00000000 1.00000000 1.0
38.00000000 1.00000000 1.0
39.00000000 1.00000000 1.0
0.00000000 2.00000000 1.0
1.00000000 2.00000000 1.0
2.00000000 2.00000000 1.0
3.00000000 2.00000000 1.0
4.00000000 2.00000000 1.0
5.00000000 2.00000000 1.0
6.00000000 2.00000000 1.0
7.00000000 2.00000000 1.0
8.00000000 2.00000000 1.0
9.00000000 2.00000000 1.0
10.00000000 2.00000000 1.0
11.00000000 2.00000000 1.0
12.00000000 2.00000000 1.0
13.00000000 2.00000000 1.0
14.00000000 2.00000000 1.0
15.00000000 2.00000000 1.0
16.00000000 2.00000000 1.0
17.00000000 2.00000000 1.0
18.00000000 2.00000000 1.0
19.00000000 2.00000000 1.0
20.00000000 2.00000000 1.0
21.00000000 2.00000000 1.0
22.00000000 2.00000000 1.0
23.00000000 2.00000000 1.0
24.00000000 2.00000000 1.0
25.00000000 2.00000000 1.0
26.00000000 2.00000000 1.0
27.00000000 2.00000000 1.0
28.00000000 2.00000000 1.0
29.00000000 2.00000000 1.0
30.00000000 2.00000000 1.0
31.00000000 2.00000000 1.0
32.00000000 2.00000000 1.0
33.00000000 2.00000000 1.0
34.00000000 2.00000000 1.0
35.00000000 2.00000000 1.0
36.00000000 2.00000000 1.0
37.00000000 2.00000000 1.0
38.00000000 2.00000000 1.0
39.00000000 2.00000000 1.0
0.00000000 3.00000000 1.0
1.00000000 3.00000000 1.0
2.00000000 3.00000000 1.0
3.00000000 3.00000000 1.0
4.00000000 3.00000000 1.0
5.00000000 3.00000000 1.0
6.00000000 3.00000000 1.0
7.00000000 3.00000000 1.0
8.00000000 3.00000000 1.0
9.00000000 3.00000000 1.0
10.00000000 3.00000000 1.0
11.00000000 3.00000000 1.0
12.00000000 3.00000000 1.0
13.00000000 3.00000000 1.0
14.00000000 3.00000000 1.0
15.00000000 3.00000000 1.0
16.00000000 3.00000000 1.0
17.00000000 3.00000000 1.0
18.00000000 3.00000000 1.0
19.00000000 3.00000000 1.0
20.00000000 3.00000000 1.0
21.00000000 3.00000000 1.0
22.00000000 3.00000000 1.0
23.00000000 3.00000000 1.0
24.00000000 3.00000000 1.0
25.00000000 3.00000000 1.0
26.00000000 3.00000000 1.0
27.00000000 3.00000000 1.0
28.00000000 3.00000000 1.0
29.00000000 3.00000000 1.0
30.00000000 3.00000000 1.0
31.00000000 3.00000000 1.0
32.00000000 3.00000000 1.0
33.00000000 3.00000000 1.0
34.00000000 3.00000000 1.0
35.00000000 3.00000000 1.0
36.00000000 3.00000000 1.0
37.00000000 3.00000000 1.0
38.00000000 3.00000000 1.0
39.00000000 3.00000000 1.0
0.00000000 4.00000000 1.0
1.00000000 4.00000000 1.0
2.00000000 4.00000000 1.0
3.00000000 4.00000000 1.0
4.00000000 4.00000000 1.0
5.00000000 4.00000000 1.0
6.00000000 4.00000000 1.0
7.00000000 4.00000000 1.0
8.00000000 4.00000000 1.0
9.00000000 4.00000000 1.0
10.00000000 4.00000000 1.0
11.00000000 4.00000000 1.0
12.00000000 4.00000000 1.0
13.00000000 4.00000000 1.0
14.00000000 4.00000000 1.0
15.00000000 4.00000000 1.0
16.00000000 4.00000000 1.0
17.00000000 4.00000000 1.0
18.00000000 4.00000000 1.0
19.00000000 4.00000000 1.0
20.00000000 4.00000000 1.0
21.00000000 4.00000000 1.0
22.00000000 4.00000000 1.0
23.00000000 4.00000000 1.0
24.00000000 4.00000000 1.0
25.00000000 4.00000000 1.0
26.00000000 4.00000000 1.0
27.00000000 4.00000000 1.0
28.00000000 4.00000000 1.0
29.00000000 4.00000000 1.0
30.00000000 4.00000000 1.0
31.00000000 4.00000000 1.0
32.00000000 4.00000000 1.0
33.00000000 4.00000000 1.0
34.00000000 4.00000000 1.0
35.00000000 4.00000000 1.0
36.00000000 4.00000000 1.0
37.00000000 4.00000000 1.0
38.00000000 4.00000000 1.0
39.00000000 4.00000000 1.0
0.00000000 5.00000000 1.0
1.00000000 5.00000000 1.0
2.00000000 5.00000000 1.0
3.00000000 5.00000000 1.0
4.00000000 5.00000000 1.0
5.00000000 5.00000000 1.0
6.00000000 5.00000000 1.0
7.00000000 5.00000000 1.0
8.00000000 5.00000000 1.0
9.00000000 5.00000000 1.0
10.00000000 5.00000000 1.0
11.00000000 5.00000000 1.0
12.00000000 5.00000000 1.0
13.00000000 5.00000000 1.0
14.00000000 5.00000000 1.0
15.00000000 5.00000000 1.0
16.00000000 5.00000000 1.0
17.00000000 5.00000000 1.0
18.00000000 5.00000000 1.0
19.00000000 5.00000000 1.0
20.00000000 5.00000000 1.0
21.00000000 5.00000000 1.0
22.00000000 5.00000000 1.0
23.00000000 5.00000000 1.0
24.00000000 5.00000000 1.0
25.00000000 5.00000000 1.0
26.00000000 5.00000000 1.0
27.00000000 5.00000000 1.0
28.00000000 5.00000000 1.0
29.00000000 5.00000000 1.0
30.00000000 5.00000000 1.0
31.00000000 5.00000000 1.0
32.00000000 5.00000000 1.0
33.00000000 5.00000000 1.0
34.00000000 5.00000000 1.0
35.00000000 5.00000000 1.0
36.00000000 5.00000000 1.0
37.00000000 5.00000000 1.0
38.00000000 5.00000000 1.0
39.00000000 5.00000000 1.0
0.00000000 6.00000000 1.0
1.00000000 6.00000000 1.0
2.00000000 6.00000000 1.0
3.00000000 6.00000000 1.0
4.00000000 6.00000000 1.0
5.00000000 6.00000000 1.0
6.00000000 6.00000000 1.0
7.00000000 6.00000000 1.0
8.00000000 6.00000000 1.0
9.00000000 6.00000000 1.0
10.00000000 6.00000000 1.0
11.00000000 6.00000000 1.0
12.00000000 6.00000000 1.0
13.00000000 6.00000000 1.0
14.00000000 6.00000000 1.0
15.00000000 6.00000000 1.0
16.00000000 6.00000000 1.0
17.00000000 6.00000000 1.0
18.00000000 6.00000000 1.0
19.00000000 6.00000000 1.0
20.00000000 6.00000000 1.0
21.00000000 6.00000000 1.0
22.00000000 6.00000000 1.0
23.00000000 6.00000000 1.0
24.00000000 6.00000000 1.0
25.00000000 6.00000000 1.0
26.00000000 6.00000000 1.0
27.00000000 6.00000000 1.0
28.00000000 6.00000000 1.0
29.00000000 6.00000000 1.0
30.00000000 6.00000000 1.0
31.00000000 6.00000000 1.0
32.00000000 6.00000000 1.0
33.00000000 6.00000000 1.0
34.00000000 6.00000000 1.0
35.00000000 6.00000000 1.0
36.00000000 6.00000000 1.0
37.00000000 6.00000000 1.0
38.00000000 6.00000000 1.0
39.00000000 6.00000000 1.0
0.00000000 7.00000000 1.0
1.00000000 7.00000000 1.0
2.00000000 7.00000000 1.0
3.00000000 7.00000000 1.0
4.00000000 7.00000000 1.0
5.00000000 7.00000000 1.0
6.00000000 7.00000000 1.0
7.00000000 7.00000000 1.0
8.00000000 7.00000000 1.0
9.00000000 7.00000000 1.0
10.00000000 7.00000000 1.0
11.00000000 7.00000000 1.0
12.00000000 7.00000000 1.0
13.00000000 7.00000000 1.0
14.00000000 7.00000000 1.0
15.00000000 7.00000000 1.0
16.00000000 7.00000000 1.0
17.00000000 7.00000000 1.0
18.00000000 7.00000000 1.0
19.00000000 7.00000000 1.0
20.00000000 7.00000000 1.0
21.00000000 7.00000000 1.0
22.00000000 7.00000000 1.0
23.00000000 7.00000000 1.0
24.00000000 7.00000000 1.0
25.00000000 7.00000000 1.0
26.00000000 7.00000000 1.0
27.00000000 7.00000000 1.0
28.00000000 7.00000000 1.0
29.00000000 7.00000000 1.0
30.00000000 7.00000000 1.0
31.00000000 7.00000000 1.0
32.00000000 7.00000000 1.0
33.00000000 7.00000000 1.0
34.00000000 7.00000000 1.0
35.00000000 7.00000000 1.0
36.00000000 7.00000000 1.0
37.00000000 7.00000000 1.0
38.00000000 7.00000000 1.0
39.00000000 7.00000000 1.0
0.00000000 8.00000000 1.0
1.00000000 8.00000000 1.0
2.00000000 8.00000000 1.0
3.00000000 8.00000000 1.0
4.00000000 8.00000000 1.0
5.00000000 8.00000000 1.0
6.00000000 8.00000000 1.0
7.00000000 8.00000000 1.0
8.00000000 8.00000000 1.0
9.00000000 8.00000000 1.0
10.00000000 8.00000000 1.0
11.00000000 8.00000000 1.0
12.00000000 8.00000000 1.0
13.00000000 8.00000000 1.0
14.00000000 8.00000000 1.0
15.00000000 8.00000000 1.0
16.00000000 8.00000000 1.0
17.00000000 8.00000000 1.0
18.00000000 8.00000000 1.0
19.00000000 8.00000000 1.0
20.00000000 8.00000000 1.0
21.00000000 8.00000000 1.0
22.00000000 8.00000000 1.0
23.00000000 8.00000000 1.0
24.00000000 8.00000000 1.0
25.00000000 8.00000000 1.0
26.00000000 8.00000000 1.0
27.00000000 8.00000000 1.0
28.00000000 8.00000000 1.0
29.00000000 8.00000000 1.0
30.00000000 8.00000000 1.0
31.00000000 8.00000000 1.0
32.00000000 8.00000000 1.0
33.00000000 8.00000000 1.0
34.00000000 8.00000000 1.0
35.00000000 8.00000000 1.0
36.00000000 8.00000000 1.0
37.00000000 8.00000000 1.0
38.00000000 8.00000000 1.0
39.00000000 8.00000000 1.0
0.00000000 9.00000000 1.0
1.00000000 9.00000000 1.0
2.00000000 9.00000000 1.0
3.00000000 9.00000000 1.0
4.00000000 9.00000000 1.0
5.00000000 9.00000000 1.0
6.00000000 9.00000000 1.0
7.00000000 9.00000000 1.0
8.00000000 9.00000000 1.0
[...]
POINT_DATA 1600
VECTORS velocity double
0.00000000 0.00001214 0.0
0.00000027 -0.00001223 0.0
0.00000040 0.00001872 0.0
0.00000047 0.00007380 0.0
0.00000046 0.00013247 0.0
0.00000039 0.00018522 0.0
0.00000027 0.00022832 0.0
0.00000012 0.00026069 0.0
-0.00000005 0.00028242 0.0
-0.00000023 0.00029414 0.0
-0.00000040 0.00029670 0.0
-0.00000058 0.00029106 0.0
-0.00000074 0.00027820 0.0
-0.00000089 0.00025909 0.0
-0.00000102 0.00023466 0.0
-0.00000114 0.00020578 0.0
-0.00000124 0.00017327 0.0
-0.00000132 0.00013788 0.0
-0.00000137 0.00010032 0.0
-0.00000141 0.00006122 0.0
-0.00000142 0.00002121 0.0
-0.00000141 -0.00001912 0.0
-0.00000137 -0.00005917 0.0
-0.00000132 -0.00009836 0.0
-0.00000124 -0.00013606 0.0
-0.00000114 -0.00017160 0.0
-0.00000103 -0.00020427 0.0
-0.00000089 -0.00023331 0.0
-0.00000074 -0.00025789 0.0
-0.00000058 -0.00027711 0.0
-0.00000040 -0.00029003 0.0
-0.00000023 -0.00029569 0.0
-0.00000005 -0.00029310 0.0
0.00000012 -0.00028129 0.0
0.00000027 -0.00025943 0.0
0.00000039 -0.00022690 0.0
0.00000046 -0.00018362 0.0
0.00000047 -0.00013070 0.0
0.00000040 -0.00007189 0.0
0.00000026 -0.00001678 0.0
0.00000000 0.00003359 0.0
0.00007611 -0.00003403 0.0
-0.00000217 0.00011571 0.0
-0.00025969 0.00035082 0.0
-0.00070559 0.00059882 0.0
-0.00132308 0.00082409 0.0
-0.00208329 0.00101068 0.0
-0.00295263 0.00115271 0.0
-0.00389668 0.00124939 0.0
-0.00488226 0.00130254 0.0
-0.00587858 0.00131539 0.0
-0.00685775 0.00129178 0.0
-0.00779504 0.00123589 0.0
-0.00866893 0.00115191 0.0
-0.00946103 0.00104391 0.0
-0.01015594 0.00091580 0.0
-0.01074106 0.00077122 0.0
-0.01120641 0.00061358 0.0
-0.01154441 0.00044603 0.0
-0.01174975 0.00027153 0.0
-0.01181926 0.00009288 0.0
-0.01175185 -0.00008721 0.0
-0.01154845 -0.00026607 0.0
-0.01121210 -0.00044096 0.0
-0.01074799 -0.00060905 0.0
-0.01016361 -0.00076734 0.0
-0.00946892 -0.00091262 0.0
-0.00867652 -0.00104142 0.0
-0.00780187 -0.00115002 0.0
-0.00686346 -0.00123448 0.0
-0.00588295 -0.00129066 0.0
-0.00488524 -0.00131434 0.0
-0.00389838 -0.00130134 0.0
-0.00295333 -0.00124782 0.0
-0.00208338 -0.00115062 0.0
-0.00132304 -0.00100795 0.0
-0.00070591 -0.00082069 0.0
-0.00026079 -0.00059483 0.0
-0.00000429 -0.00034646 0.0
0.00007314 -0.00011147 0.0
0.00000000 -0.00000198 0.0
0.00000006 0.00000117 0.0
-0.00027537 0.00039114 0.0
-0.00085540 0.00093084 0.0
-0.00174701 0.00149043 0.0
-0.00292368 0.00200075 0.0
-0.00434013 0.00242713 0.0
-0.00594195 0.00275453 0.0
-0.00767167 0.00297910 0.0
-0.00947254 0.00310341 0.0
-0.01129083 0.00313368 0.0
-0.01307719 0.00307814 0.0
-0.01478731 0.00294602 0.0
-0.01638229 0.00274689 0.0
-0.01782862 0.00249024 0.0
-0.01909807 0.00218524 0.0
-0.02016739 0.00184055 0.0
-0.02101811 0.00146429 0.0
-0.02163615 0.00106407 0.0
-0.02201164 0.00064701 0.0
-0.02213866 0.00021990 0.0
-0.02201518 -0.00021069 0.0
-0.02164299 -0.00063826 0.0
-0.02102774 -0.00105620 0.0
-0.02017914 -0.00145765 0.0
-0.01911111 -0.00183538 0.0
-0.01784207 -0.00218165 0.0
-0.01639529 -0.00248820 0.0
-0.01479909 -0.00274622 0.0
-0.01308715 -0.00294642 0.0
-0.01129861 -0.00307921 0.0
-0.00947801 -0.00313493 0.0
-0.00767501 -0.00310435 0.0
-0.00594357 -0.00297926 0.0
-0.00434065 -0.00275354 0.0
-0.00292382 -0.00242477 0.0
-0.00174749 -0.00199702 0.0
-0.00085674 -0.00148557 0.0
-0.00027777 -0.00092543 0.0
-0.00000301 -0.00038623 0.0
0.00000000 -0.00015058 0.0
-0.00011482 0.00014964 0.0
-0.00064033 0.00091665 0.0
-0.00157625 0.00186676 0.0
-0.00291447 0.00282865 0.0
-0.00461658 0.00370287 0.0
-0.00662453 0.00443508 0.0
-0.00886918 0.00499918 0.0
-0.01127679 0.00538671 0.0
-0.01377354 0.00560016 0.0
-0.01628865 0.00564879 0.0
-0.01875636 0.00554584 0.0
-0.02111712 0.00530678 0.0
-0.02331821 0.00494798 0.0
-0.02531396 0.00448598 0.0
-0.02706563 0.00393692 0.0
-0.02854127 0.00331619 0.0
-0.02971532 0.00263834 0.0
-0.03056830 0.00191705 0.0
-0.03108650 0.00116521 0.0
-0.03126172 0.00039512 0.0
-0.03109114 -0.00038127 0.0
-0.03057725 -0.00115215 0.0
-0.02972795 -0.00190550 0.0
-0.02855669 -0.00262891 0.0
-0.02708278 -0.00330928 0.0
-0.02533170 -0.00393273 0.0
-0.02333543 -0.00448447 0.0
-0.02113281 -0.00494884 0.0
-0.01876974 -0.00530950 0.0
-0.01629921 -0.00554973 0.0
-0.01378112 -0.00565302 0.0
-0.01128156 -0.00560390 0.0
-0.00887163 -0.00538918 0.0
-0.00662540 -0.00499977 0.0
-0.00461673 -0.00443343 0.0
-0.00291475 -0.00369900 0.0
-0.00157729 -0.00282303 0.0
-0.00064237 -0.00186035 0.0
-0.00011758 -0.00091102 0.0
0.00000000 -0.00041266 0.0
-0.00023032 0.00041174 0.0
-0.00101585 0.00170218 0.0
-0.00231442 0.00316533 0.0
-0.00409304 0.00460726 0.0
-0.00629676 0.00590659 0.0
-0.00885401 0.00699233 0.0
-0.01168278 0.00782795 0.0
-0.01469624 0.00840017 0.0
-0.01780729 0.00871121 0.0
-0.02093196 0.00877345 0.0
-0.02399171 0.00860560 0.0
-0.02691504 0.00823010 0.0
-0.02963829 0.00767122 0.0
-0.03210605 0.00695374 0.0
-0.03427119 0.00610206 0.0
-0.03609469 0.00513968 0.0
-0.03754526 0.00408891 0.0
-0.03859902 0.00297081 0.0
-0.03923913 0.00180533 0.0
-0.03945554 0.00061153 0.0
-0.03924477 -0.00059205 0.0
-0.03860989 -0.00178703 0.0
-0.03756061 -0.00295478 0.0
-0.03611347 -0.00407605 0.0
-0.03429214 -0.00513061 0.0
-0.03212779 -0.00609708 0.0
-0.02965947 -0.00695278 0.0
-0.02693445 -0.00767386 0.0
-0.02400838 -0.00823557 0.0
-0.02094524 -0.00861287 0.0
-0.01781694 -0.00878132 0.0
-0.01470241 -0.00871843 0.0
-0.01168601 -0.00840558 0.0
-0.00885513 -0.00783065 0.0
-0.00629675 -0.00699181 0.0
-0.00409289 -0.00590286 0.0
-0.00231492 -0.00460100 0.0
-0.00101739 -0.00315788 0.0
-0.00023281 -0.00169560 0.0
0.00000000 -0.00077807 0.0
-0.00033560 0.00077727 0.0
-0.00137112 0.00273771 0.0
-0.00302329 0.00481749 0.0
-0.00523004 0.00681401 0.0
-0.00791606 0.00859261 0.0
-0.01099414 0.01007041 0.0
-0.01436899 0.01120280 0.0
-0.01794164 0.01197281 0.0
-0.02161342 0.01238300 0.0
-0.02528931 0.01244934 0.0
-0.02888034 0.01219663 0.0
-0.03230531 0.01165507 0.0
-0.03549176 0.01085768 0.0
-0.03837652 0.00983849 0.0
-0.04090572 0.00863127 0.0
-0.04303472 0.00726868 0.0
-0.04472767 0.00578186 0.0
-0.04595720 0.00420034 0.0
-0.04670400 0.00255213 0.0
-0.04695652 0.00086405 0.0
-0.04671076 -0.00083780 0.0
-0.04597026 -0.00252753 0.0
-0.04474614 -0.00417890 0.0
-0.04305736 -0.00576483 0.0
-0.04093106 -0.00725692 0.0
-0.03840292 -0.00862522 0.0
-0.03551762 -0.00983807 0.0
-0.03232917 -0.01086231 0.0
-0.02890101 -0.01166373 0.0
-0.02530597 -0.01220791 0.0
-0.02162570 -0.01246158 0.0
-0.01794965 -0.01239448 0.0
-0.01437330 -0.01198193 0.0
-0.01099565 -0.01120830 0.0
-0.00791591 -0.01007154 0.0
-0.00522941 -0.00858936 0.0
-0.00302318 -0.00680722 0.0
-0.00137216 -0.00480889 0.0
-0.00033785 -0.00272991 0.0
0.00000000 -0.00123566 0.0
-0.00042945 0.00123503 0.0
-0.00169909 0.00400734 0.0
-0.00368999 0.00680839 0.0
-0.00631087 0.00943489 0.0
-0.00946397 0.01174570 0.0
-0.01304439 0.01365083 0.0
-0.01694231 0.01510071 0.0
-0.02104619 0.01607669 0.0
-0.02524621 0.01658301 0.0
-0.02943720 0.01664032 0.0
-0.03352099 0.01628042 0.0
-0.03740812 0.01554220 0.0
-0.04101883 0.01446839 0.0
-0.04428359 0.01310325 0.0
-0.04714316 0.01149084 0.0
-0.04954843 0.00967394 0.0
-0.05146001 0.00769344 0.0
-0.05284783 0.00558815 0.0
-0.05369066 0.00339496 0.0
-0.05397581 0.00114920 0.0
-0.05369889 -0.00111472 0.0
-0.05286375 -0.00336267 0.0
-0.05148258 -0.00556007 0.0
-0.04957618 -0.00767122 0.0
-0.04717434 -0.00965877 0.0
-0.04431626 -0.01148330 0.0
-0.04105106 -0.01310327 0.0
-0.03743811 -0.01447526 0.0
-0.03354727 -0.01555457 0.0
-0.02945871 -0.01629647 0.0
-0.02526242 -0.01665787 0.0
-0.02105712 -0.01659978 0.0
-0.01694850 -0.01609055 0.0
-0.01304686 -0.01510993 0.0
-0.00946404 -0.01365437 0.0
-0.00630996 -0.01174344 0.0
-0.00368938 -0.00942779 0.0
-0.00169969 -0.00679859 0.0
-0.00043151 -0.00399808 0.0
0.00000000 -0.00177649 0.0
-0.00051399 0.00177609 0.0
-0.00200331 0.00549666 0.0
-0.00431929 0.00912436 0.0
-0.00734303 0.01245864 0.0
-0.01095358 0.01535624 0.0
-0.01502682 0.01772407 0.0
-0.01943692 0.01951081 0.0
-0.02405881 0.02069858 0.0
-0.02877101 0.02129522 0.0
-0.03345830 0.02132761 0.0
-0.03801381 0.02083593 0.0
-0.04234056 0.01986895 0.0
-0.04635244 0.01848027 0.0
-0.04997458 0.01672539 0.0
-0.05314338 0.01465964 0.0
-0.05580624 0.01233680 0.0
-0.05792105 0.00980825 0.0
-0.05945572 0.00712282 0.0
-0.06038763 0.00432687 0.0
-0.06070325 0.00146482 0.0
-0.06039789 -0.00142009 0.0
-0.05947559 -0.00428496 0.0
-0.05794930 -0.00708636 0.0
-0.05584111 -0.00977941 0.0
-0.05318275 -0.01231712 0.0
-0.05001611 -0.01464994 0.0
-0.04639375 -0.01672563 0.0
-0.04237944 -0.01848957 0.0
-0.03804836 -0.01988564 0.0
-0.03348714 -0.02085769 0.0
-0.02879334 -0.02135167 0.0
-0.02407449 -0.02131863 0.0
-0.01944648 -0.02071856 0.0
-0.01503136 -0.01952505 0.0
-0.01095463 -0.01773110 0.0
-0.00734233 -0.01535574 0.0
-0.00431846 -0.01245166 0.0
-0.00200361 -0.00911344 0.0
-0.00051590 -0.00548579 0.0
0.00000000 -0.00239478 0.0
-0.00059229 0.00239464 0.0
-0.00229182 0.00719619 0.0
-0.00492463 0.01175716 0.0
-0.00834611 0.01588012 0.0
-0.01241194 0.01942207 0.0
-0.01697767 0.02228979 0.0
-0.02189999 0.02443314 0.0
-0.02703901 0.02583760 0.0
-0.03226074 0.02651694 0.0
-0.03743942 0.02650628 0.0
-0.04245943 0.02585594 0.0
-0.04721662 0.02462614 0.0
-0.05161905 0.02288269 0.0
-0.05558722 0.02069356 0.0
-0.05905397 0.01812639 0.0
-0.06196397 0.01524680 0.0
-0.06427314 0.01211743 0.0
-0.06594798 0.00879766 0.0
-0.06696494 0.00534382 0.0
-0.06730992 0.00180980 0.0
-0.06697800 -0.00175200 0.0
-0.06597333 -0.00528963 0.0
-0.06430927 -0.00875042 0.0
-0.06200875 -0.01207993 0.0
-0.05910480 -0.01522107 0.0
-0.05564122 -0.01811352 0.0
-0.05167327 -0.02069358 0.0
-0.04726826 -0.02289457 0.0
-0.04250605 -0.02464786 0.0
-0.03747913 -0.02588461 0.0
-0.03229237 -0.02653842 0.0
-0.02706220 -0.02654881 0.0
-0.02191517 -0.02586558 0.0
-0.01698602 -0.02445420 0.0
-0.01241523 -0.02230189 0.0
-0.00834642 -0.01942454 0.0
-0.00492405 -0.01587403 0.0
-0.00229203 -0.01174546 0.0
-0.00059411 -0.00718371 0.0
0.00000000 -0.00308808 0.0
-0.00066761 0.00308822 0.0
-0.00257431 0.00910289 0.0
-0.00552340 0.01470625 0.0
-0.00934587 0.01970258 0.0
-0.01387387 0.02395007 0.0
-0.01894149 0.02735741 0.0
-0.02438652 0.02987816 0.0
-0.03005281 0.03150389 0.0
-0.03579273 0.03225685 0.0
-0.04146923 0.03218279 0.0
-0.04695760 0.03134431 0.0
-0.05214650 0.02981504 0.0
-0.05693848 0.02767466 0.0
-0.06124996 0.02500504 0.0
-0.06501083 0.02188727 0.0
-0.06816377 0.01839973 0.0
-0.07066335 0.01461701 0.0
-0.07247524 0.01060955 0.0
-0.07357539 0.00644396 0.0
-0.07394941 0.00218383 0.0
-0.07359225 -0.00210917 0.0
-0.07250801 -0.00637387 0.0
-0.07071019 -0.01054825 0.0
-0.06822206 -0.01456806 0.0
-0.06507737 -0.01836575 0.0
-0.06132116 -0.02186973 0.0
-0.05701062 -0.02500411 0.0
-0.05221601 -0.02768918 0.0
-0.04702130 -0.02984257 0.0
-0.04152457 -0.03138134 0.0
-0.03583800 -0.03222499 0.0
-0.03008728 -0.03229952 0.0
-0.02441046 -0.03154241 0.0
-0.01895613 -0.02990852 0.0
-0.01388121 -0.02737679 0.0
-0.00934842 -0.02395733 0.0
-0.00552378 -0.01969867 0.0
-0.00257475 -0.01469448 0.0
-0.00066942 -0.00908904 0.0
0.00000000 -0.00385714 0.0
-0.00074310 0.00385759 0.0
-0.00286088 0.01122066 0.0
-0.00613454 0.01797990 0.0
-0.01037096 0.02393900 0.0
-0.01537808 0.02895720 0.0
-0.02096722 0.03294654 0.0
-0.02695566 0.03586660 0.0
-0.03316948 0.03771771 0.0
-0.03944606 0.03853343 0.0
-0.04563618 0.03837291 0.0
-0.05160552 0.03731364 0.0
-0.05723542 0.03544494 0.0
-0.06242314 0.03286238 0.0
-0.06708147 0.02966337 0.0
-0.07113797 0.02594377 0.0
-0.07453398 0.02179574 0.0
-0.07722341 0.01730644 0.0
-0.07917167 0.01255781 0.0
-0.08035466 0.00762695 0.0
-0.08075800 0.00258716 0.0
-0.08037654 -0.00249063 0.0
-0.07921426 -0.00753615 0.0
-0.07728444 -0.01247806 0.0
-0.07461024 -0.01724226 0.0
-0.07122549 -0.02175051 0.0
-0.06717575 -0.02591947 0.0
-0.06251950 -0.02966037 0.0
-0.05732926 -0.03287942 0.0
-0.05169269 -0.03547915 0.0
-0.04571325 -0.03736077 0.0
-0.03951058 -0.03842766 0.0
-0.03322018 -0.03858992 0.0
-0.02699253 -0.03777006 0.0
-0.02099145 -0.03590960 0.0
-0.01539194 -0.03297631 0.0
-0.01037741 -0.02897185 0.0
-0.00613685 -0.02393922 0.0
-0.00286200 -0.01796932 0.0
-0.00074503 -0.01120602 0.0
0.00000000 -0.00470573 0.0
-0.00082177 0.00470651 0.0
-0.00316155 0.01356044 0.0
-0.00677740 0.02159575 0.0
-0.01145109 0.02861269 0.0
-0.01696493 0.03447104 0.0
-0.02310566 0.03908726 0.0
-0.02966819 0.04242913 0.0
-0.03645906 0.04450858 0.0
-0.04329928 0.04537365 0.0
-0.05002644 0.04510006 0.0
-0.05649604 0.04378324 0.0
-0.06258202 0.04153091 0.0
-0.06817656 0.03845692 0.0
-0.07318933 0.03467613 0.0
-0.07754623 0.03030068 0.0
-0.08118800 0.02543750 0.0
-0.08406864 0.02018708 0.0
-0.08615395 0.01464313 0.0
-0.08742028 0.00889329 0.0
-0.08785355 0.00302042 0.0
-0.08744863 -0.00289555 0.0
-0.08620921 -0.00877557 0.0
-0.08414804 -0.01453923 0.0
-0.08128757 -0.02010272 0.0
-0.07766105 -0.02537703 0.0
-0.07331380 -0.03026672 0.0
-0.06830476 -0.03466940 0.0
-0.06270808 -0.03847610 0.0
-0.05661455 -0.04157268 0.0
-0.05013281 -0.04384251 0.0
-0.04339006 -0.04517040 0.0
-0.03653224 -0.04544774 0.0
-0.02972328 -0.04457901 0.0
-0.02314375 -0.04248912 0.0
-0.01698850 -0.03913156 0.0
-0.01146363 -0.03449672 0.0
-0.00678294 -0.02861991 0.0
-0.00316397 -0.02158829 0.0
-0.00082397 -0.01354601 0.0
0.00000000 -0.00564056 0.0
-0.00090647 0.00564171 0.0
-0.00348619 0.01614015 0.0
-0.00747126 0.02558082 0.0
-0.01261616 0.03375758 0.0
-0.01867512 0.04053000 0.0
-0.02540786 0.04582000 0.0
-0.03258463 0.04960589 0.0
-0.03999043 0.05191438 0.0
-0.04742836 0.05281158 0.0
-0.05472180 0.05239350 0.0
-0.06171560 0.05077703 0.0
-0.06827627 0.04809157 0.0
-0.07429130 0.04447195 0.0
-0.07966788 0.04005271 0.0
-0.08433112 0.03496392 0.0
-0.08822209 0.02932847 0.0
-0.09129574 0.02326072 0.0
-0.09351903 0.01686642 0.0
-0.09486937 0.01024362 0.0
-0.09533330 0.00348436 0.0
-0.09490586 -0.00332299 0.0
-0.09359028 -0.01009115 0.0
-0.09139834 -0.01673117 0.0
-0.08835120 -0.02314986 0.0
-0.08448066 -0.02924756 0.0
-0.07983090 -0.03491648 0.0
-0.07446037 -0.04003992 0.0
-0.06844395 -0.04449252 0.0
-0.06187489 -0.04814174 0.0
-0.05486660 -0.05085080 0.0
-0.04755394 -0.05248306 0.0
-0.04009373 -0.05290795 0.0
-0.03266451 -0.05200823 0.0
-0.02546514 -0.04968849 0.0
-0.01871242 -0.04588428 0.0
-0.01263756 -0.04057158 0.0
-0.00748170 -0.03377576 0.0
-0.00349068 -0.02557930 0.0
-0.00090916 -0.01612753 0.0
0.00000000 -0.00667114 0.0
-0.00099997 0.00667268 0.0
-0.00384443 0.01898461 0.0
-0.00823520 0.02997158 0.0
-0.01389580 0.03941818 0.0
-0.02054892 0.04718312 0.0
-0.02792402 0.05319510 0.0
-0.03576381 0.05744568 0.0
-0.04382951 0.05998008 0.0
-0.05190466 0.06088671 0.0
-0.05979743 0.06028628 0.0
-0.06734170 0.05832130 0.0
-0.07439674 0.05514661 0.0
-0.08084601 0.05092122 0.0
-0.08659518 0.04580188 0.0
-0.09156969 0.03993843 0.0
-0.09571208 0.03347086 0.0
-0.09897938 0.02652802 0.0
-0.10134066 0.01922771 0.0
-0.10277508 0.01167803 0.0
-0.10327029 0.00397958 0.0
-0.10282160 -0.00377169 0.0
-0.10143160 -0.01148114 0.0
-0.09911064 -0.01905213 0.0
-0.09587777 -0.02638273 0.0
-0.09176238 -0.03336295 0.0
-0.08680632 -0.03987254 0.0
-0.08106637 -0.04577987 0.0
-0.07461695 -0.05094194 0.0
-0.06755280 -0.05520588 0.0
-0.05999146 -0.05841213 0.0
-0.05207519 -0.06039932 0.0
-0.04397214 -0.06101100 0.0
-0.03587643 -0.06010395 0.0
-0.02800697 -0.05755794 0.0
-0.02060491 -0.05328634 0.0
-0.01392949 -0.04724699 0.0
-0.00825261 -0.03945264 0.0
-0.00385199 -0.02997992 0.0
-0.00100342 -0.01897610 0.0
0.00000000 -0.00780976 0.0
-0.00110498 0.00781173 0.0
-0.00424584 0.02212546 0.0
-0.00908806 0.03481379 0.0
-0.01531920 0.04564931 0.0
-0.02262570 0.05448961 0.0
-0.03070258 0.06127198 0.0
-0.03926160 0.06600470 0.0
-0.04803757 0.06875605 0.0
-0.05679272 0.06964187 0.0
-0.06531922 0.06881277 0.0
-0.07343983 0.06644191 0.0
-0.08100716 0.06271394 0.0
-0.08790167 0.05781573 0.0
-0.09402888 0.05192909 0.0
-0.09931606 0.04522560 0.0
-0.10370875 0.03786355 0.0
-0.10716743 0.02998669 0.0
-0.10966448 0.02172477 0.0
-0.11118170 0.01319525 0.0
-0.11170840 0.00450627 0.0
-0.11124030 -0.00423979 0.0
-0.10977918 -0.01294226 0.0
-0.10733332 -0.02149799 0.0
-0.10391875 -0.02979730 0.0
-0.09956122 -0.03772048 0.0
-0.09429879 -0.04513497 0.0
-0.08818499 -0.05189367 0.0
-0.08129222 -0.05783470 0.0
-0.07371533 -0.06278278 0.0
-0.06557488 -0.06655257 0.0
-0.05702002 -0.06895418 0.0
-0.04823030 -0.06980072 0.0
-0.03941635 -0.06891789 0.0
-0.03081896 -0.06615532 0.0
-0.02270635 -0.06139895 0.0
-0.01536938 -0.05458395 0.0
-0.00911499 -0.04570703 0.0
-0.00425768 -0.03483723 0.0
-0.00110953 -0.02212424 0.0
0.00000000 -0.00907151 0.0
-0.00122422 0.00907397 0.0
-0.00469993 0.02560117 0.0
-0.01004853 0.04016239 0.0
-0.01691498 0.05251576 0.0
-0.02494344 0.06251807 0.0
-0.03378936 0.07011789 0.0
-0.04312943 0.07534476 0.0
-0.05266911 0.07829573 0.0
-0.06214762 0.07912038 0.0
-0.07134043 0.07800558 0.0
-0.08005952 0.07516100 0.0
-0.08815189 0.07080631 0.0
-0.09549657 0.06516041 0.0
-0.10200081 0.05843333 0.0
-0.10759571 0.05082050 0.0
-0.11223178 0.04249961 0.0
-0.11587471 0.03362962 0.0
-0.11850165 0.02435170 0.0
-0.12009812 0.01479172 0.0
-0.12065576 0.00506391 0.0
-0.12017094 -0.00472461 0.0
-0.11864434 -0.01446885 0.0
-0.11608151 -0.02406082 0.0
-0.11249430 -0.03338451 0.0
-0.10790329 -0.04231149 0.0
-0.10234096 -0.05069730 0.0
-0.09585554 -0.05837909 0.0
-0.08851536 -0.06517488 0.0
-0.08041341 -0.07088473 0.0
-0.07167168 -0.07529430 0.0
-0.06244509 -0.07818077 0.0
-0.05292431 -0.07932149 0.0
-0.04333721 -0.07850500 0.0
-0.03394827 -0.07554425 0.0
-0.02505581 -0.07029140 0.0
-0.01698664 -0.06265312 0.0
-0.01008806 -0.05260560 0.0
-0.00471754 -0.04020775 0.0
-0.00123028 -0.02561150 0.0
0.00000000 -0.01047434 0.0
-0.00136045 0.01047736 0.0
-0.00521630 0.02945701 0.0
-0.01113514 0.04608123 0.0
-0.01871099 0.06009161 0.0
-0.02753824 0.07134532 0.0
-0.03722648 0.07980613 0.0
-0.04741256 0.08553084 0.0
-0.05776942 0.08865258 0.0
-0.06801159 0.08936255 0.0
-0.07789757 0.08789155 0.0
-0.08722944 0.08449287 0.0
-0.09585029 0.07942715 0.0
-0.10364000 0.07295013 0.0
-0.11051012 0.06530345 0.0
-0.11639820 0.05670858 0.0
-0.12126217 0.04736358 0.0
-0.12507512 0.03744258 0.0
-0.12782076 0.02709734 0.0
-0.12948966 0.01646062 0.0
-0.13007658 0.00565083 0.0
-0.12957882 -0.00522238 0.0
-0.12799568 -0.01605200 0.0
-0.12532911 -0.02672738 0.0
-0.12158548 -0.03712814 0.0
-0.11677835 -0.04711863 0.0
-0.11093234 -0.05654330 0.0
-0.10408789 -0.06522355 0.0
-0.09630653 -0.07295623 0.0
-0.08767674 -0.07951452 0.0
-0.07831959 -0.08465145 0.0
-0.06839401 -0.08810635 0.0
-0.05810093 -0.08961457 0.0
-0.04768572 -0.08892020 0.0
-0.03743832 -0.08579165 0.0
-0.02769052 -0.08003920 0.0
-0.01880998 -0.07153366 0.0
-0.01119090 -0.06022468 0.0
-0.00524145 -0.04615719 0.0
-0.00136851 -0.02948444 0.0
0.00000000 -0.01203918 0.0
-0.00151650 0.01204284 0.0
-0.00580465 0.03374515 0.0
-0.01236626 0.05264283 0.0
-0.02073407 0.06845941 0.0
-0.03044353 0.08105477 0.0
-0.04105093 0.09041353 0.0
-0.05214783 0.09662774 0.0
-0.06337128 0.09987603 0.0
-0.07440975 0.10040101 0.0
-0.08500507 0.09848687 0.0
-0.09495108 0.09443887 0.0
-0.10408954 0.08856561 0.0
-0.11230438 0.08116497 0.0
-0.11951481 0.07251388 0.0
-0.12566816 0.06286192 0.0
-0.13073284 0.05242826 0.0
-0.13469202 0.04140176 0.0
-0.13753807 0.02994339 0.0
-0.13926818 0.01819073 0.0
-0.13988118 0.00626384 0.0
-0.13937561 -0.00572795 0.0
-0.13774909 -0.01767852 0.0
-0.13499905 -0.02947742 0.0
-0.13112474 -0.04100244 0.0
-0.12613057 -0.05211279 0.0
-0.12003063 -0.06264325 0.0
-0.11285434 -0.07239984 0.0
-0.10465306 -0.08115750 0.0
-0.09550725 -0.08866033 0.0
-0.08553378 -0.09462491 0.0
-0.07489291 -0.09874721 0.0
-0.06379412 -0.10071336 0.0
-0.05249999 -0.10021434 0.0
-0.04132736 -0.09696427 0.0
-0.03064500 -0.09072155 0.0
-0.02086711 -0.08131155 0.0
-0.01244248 -0.06864931 0.0
-0.00583943 -0.05276024 0.0
-0.00152716 -0.03379671 0.0
0.00000000 -0.01379005 0.0
-0.00169531 0.01379446 0.0
-0.00647487 0.03852470 0.0
-0.01376005 0.05992801 0.0
-0.02300962 0.07770898 0.0
-0.03368909 0.09173423 0.0
-0.04529270 0.10201714 0.0