# vtk DataFile Version 4.0
2D velocity field
ASCII
DATASET STRUCTURED_GRID
DIMENSIONS 40 40 1
POINTS 1600 float
0.00000000 0.00000000 1.0
1.00000000 0.00000000 1.0
2.00000000 0.00000000 1.0
3.00000000 0.00000000 1.0
4.00000000 0.00000000 1.0
5.00000000 0.00000000 1.0
6.00000000 0.00000000 1.0
7.00000000 0.00000000 1.0
8.00000000 0.00000000 1.0
9.00000000 0.00000000 1.0
10.00000000 0.00000000 1.0
11.00000000 0.00000000 1.0
12.00000000 0.00000000 1.0
13.00000000 0.00000000 1.0
14.00000000 0.00000000 1.0
15.00000000 0.00000000 1.0
16.00000000 0.00000000 1.0
17.00000000 0.00000000 1.0
18.00000000 0.00000000 1.0
19.00000000 0.00000000 1.0
20.00000000 0.00000000 1.0
21.00000000 0.00000000 1.0
22.00000000 0.00000000 1.0
23.00000000 0.00000000 1.0
24.00000000 0.00000000 1.0
25.00000000 0.00000000 1.0
26.00000000 0.00000000 1.0
27.00000000 0.00000000 1.0
28.00000000 0.00000000 1.0
29.00000000 0.00000000 1.0
30.00000000 0.00000000 1.0
31.00000000 0.00000000 1.0
32.00000000 0.00000000 1.0
33.00000000 0.00000000 1.0
34.00000000 0.00000000 1.0
35.00000000 0.00000000 1.0
36.00000000 0.00000000 1.0
37.00000000 0.00000000 1.0
38.00000000 0.00000000 1.0
39.00000000 0.00000000 1.0
0.00000000 1.00000000 1.0
1.00000000 1.00000000 1.0
2.00000000 1.00000000 1.0
3.00000000 1.00000000 1.0
4.00000000 1.00000000 1.0
5.00000000 1.00000000 1.0
6.00000000 1.00000000 1.0
7.00000000 1.00000000 1.0
8.00000000 1.00000000 1.0
9.00000000 1.00000000 1.0
10.00000000 1.00000000 1.0
11.00000000 1.00000000 1.0
12.00000000 1.00000000 1.0
13.00000000 1.00000000 1.0
14.00000000 1.00000000 1.0
15.00000000 1.00000000 1.0
16.00000000 1.00000000 1.0
17.00000000 1.00000000 1.0
18.00000000 1.00000000 1.0
19.00000000 1.00000000 1.0
20.00000000 1.00000000 1.0
21.00000000 1.00000000 1.0
22.00000000 1.00000000 1.0
23.00000000 1.00000000 1.0
24.00000000 1.00000000 1.0
25.00000000 1.00000000 1.0
26.00000000 1.00000000 1.0
27.00000000 1.00000000 1.0
28.00000000 1.00000000 1.0
29.00000000 1.00000000 1.0
30.00000000 1.00000000 1.0
31.00000000 1.00000000 1.0
32.00000000 1.00000000 1.0
33.00000000 1.00000000 1.0
34.00000000 1.00000000 1.0
35.00000000 1.00000000 1.0
36.00000000 1.00000000 1.0
37.00000000 1.00000000 1.0
38.00000000 1.00000000 1.0
39.00000000 1.00000000 1.0
0.00000000 2.00000000 1.0
1.00000000 2.00000000 1.0
2.00000000 2.00000000 1.0
3.00000000 2.00000000 1.0
4.00000000 2.00000000 1.0
5.00000000 2.00000000 1.0
6.00000000 2.00000000 1.0
7.00000000 2.00000000 1.0
8.00000000 2.00000000 1.0
9.00000000 2.00000000 1.0
10.00000000 2.00000000 1.0
11.00000000 2.00000000 1.0
12.00000000 2.00000000 1.0
13.00000000 2.00000000 1.0
14.00000000 2.00000000 1.0
15.00000000 2.00000000 1.0
16.00000000 2.00000000 1.0
17.00000000 2.00000000 1.0
18.00000000 2.00000000 1.0
19.00000000 2.00000000 1.0
20.00000000 2.00000000 1.0
21.00000000 2.00000000 1.0
22.00000000 2.00000000 1.0
23.00000000 2.00000000 1.0
24.00000000 2.00000000 1.0
25.00000000 2.00000000 1.0
26.00000000 2.00000000 1.0
27.00000000 2.00000000 1.0
28.00000000 2.00000000 1.0
29.00000000 2.00000000 1.0
30.00000000 2.00000000 1.0
31.00000000 2.00000000 1.0
32.00000000 2.00000000 1.0
33.00000000 2.00000000 1.0
34.00000000 2.00000000 1.0
35.00000000 2.00000000 1.0
36.00000000 2.00000000 1.0
37.00000000 2.00000000 1.0
38.00000000 2.00000000 1.0
39.00000000 2.00000000 1.0
0.00000000 3.00000000 1.0
1.00000000 3.00000000 1.0
2.00000000 3.00000000 1.0
3.00000000 3.00000000 1.0
4.00000000 3.00000000 1.0
5.00000000 3.00000000 1.0
6.00000000 3.00000000 1.0
7.00000000 3.00000000 1.0
8.00000000 3.00000000 1.0
9.00000000 3.00000000 1.0
10.00000000 3.00000000 1.0
11.00000000 3.00000000 1.0
12.00000000 3.00000000 1.0
13.00000000 3.00000000 1.0
14.00000000 3.00000000 1.0
15.00000000 3.00000000 1.0
16.00000000 3.00000000 1.0
17.00000000 3.00000000 1.0
18.00000000 3.00000000 1.0
19.00000000 3.00000000 1.0
20.00000000 3.00000000 1.0
21.00000000 3.00000000 1.0
22.00000000 3.00000000 1.0
23.00000000 3.00000000 1.0
24.00000000 3.00000000 1.0
25.00000000 3.00000000 1.0
26.00000000 3.00000000 1.0
27.00000000 3.00000000 1.0
28.00000000 3.00000000 1.0
29.00000000 3.00000000 1.0
30.00000000 3.00000000 1.0
31.00000000 3.00000000 1.0
32.00000000 3.00000000 1.0
33.00000000 3.00000000 1.0
34.00000000 3.00000000 1.0
35.00000000 3.00000000 1.0
36.00000000 3.00000000 1.0
37.00000000 3.00000000 1.0
38.00000000 3.00000000 1.0
39.00000000 3.00000000 1.0
0.00000000 4.00000000 1.0
1.00000000 4.00000000 1.0
2.00000000 4.00000000 1.0
3.00000000 4.00000000 1.0
4.00000000 4.00000000 1.0
5.00000000 4.00000000 1.0
6.00000000 4.00000000 1.0
7.00000000 4.00000000 1.0
8.00000000 4.00000000 1.0
9.00000000 4.00000000 1.0
10.00000000 4.00000000 1.0
11.00000000 4.00000000 1.0
12.00000000 4.00000000 1.0
13.00000000 4.00000000 1.0
14.00000000 4.00000000 1.0
15.00000000 4.00000000 1.0
16.00000000 4.00000000 1.0
17.00000000 4.00000000 1.0
18.00000000 4.00000000 1.0
19.00000000 4.00000000 1.0
20.00000000 4.00000000 1.0
21.00000000 4.00000000 1.0
22.00000000 4.00000000 1.0
23.00000000 4.00000000 1.0
24.00000000 4.00000000 1.0
25.00000000 4.00000000 1.0
26.00000000 4.00000000 1.0
27.00000000 4.00000000 1.0
28.00000000 4.00000000 1.0
29.00000000 4.00000000 1.0
30.00000000 4.00000000 1.0
31.00000000 4.00000000 1.0
32.00000000 4.00000000 1.0
33.00000000 4.00000000 1.0
34.00000000 4.00000000 1.0
35.00000000 4.00000000 1.0
36.00000000 4.00000000 1.0
37.00000000 4.00000000 1.0
38.00000000 4.00000000 1.0
39.00000000 4.00000000 1.0
0.00000000 5.00000000 1.0
1.00000000 5.00000000 1.0
2.00000000 5.00000000 1.0
3.00000000 5.00000000 1.0
4.00000000 5.00000000 1.0
5.00000000 5.00000000 1.0
6.00000000 5.00000000 1.0
7.00000000 5.00000000 1.0
8.00000000 5.00000000 1.0
9.00000000 5.00000000 1.0
10.00000000 5.00000000 1.0
11.00000000 5.00000000 1.0
12.00000000 5.00000000 1.0
13.00000000 5.00000000 1.0
14.00000000 5.00000000 1.0
15.00000000 5.00000000 1.0
16.00000000 5.00000000 1.0
17.00000000 5.00000000 1.0
18.00000000 5.00000000 1.0
19.00000000 5.00000000 1.0
20.00000000 5.00000000 1.0
21.00000000 5.00000000 1.0
22.00000000 5.00000000 1.0
23.00000000 5.00000000 1.0
24.00000000 5.00000000 1.0
25.00000000 5.00000000 1.0
26.00000000 5.00000000 1.0
27.00000000 5.00000000 1.0
28.00000000 5.00000000 1.0
29.00000000 5.00000000 1.0
30.00000000 5.00000000 1.0
31.00000000 5.00000000 1.0
32.00000000 5.00000000 1.0
33.00000000 5.00000000 1.0
34.00000000 5.00000000 1.0
35.00000000 5.00000000 1.0
36.00000000 5.00000000 1.0
37.00000000 5.00000000 1.0
38.00000000 5.00000000 1.0
39.00000000 5.00000000 1.0
0.00000000 6.00000000 1.0
1.00000000 6.00000000 1.0
2.00000000 6.00000000 1.0
3.00000000 6.00000000 1.0
4.00000000 6.00000000 1.0
5.00000000 6.00000000 1.0
6.00000000 6.00000000 1.0
7.00000000 6.00000000 1.0
8.00000000 6.00000000 1.0
9.00000000 6.00000000 1.0
10.00000000 6.00000000 1.0
11.00000000 6.00000000 1.0
12.00000000 6.00000000 1.0
13.00000000 6.00000000 1.0
14.00000000 6.00000000 1.0
15.00000000 6.00000000 1.0
16.00000000 6.00000000 1.0
17.00000000 6.00000000 1.0
18.00000000 6.00000000 1.0
19.00000000 6.00000000 1.0
20.00000000 6.00000000 1.0
21.00000000 6.00000000 1.0
22.00000000 6.00000000 1.0
23.00000000 6.00000000 1.0
24.00000000 6.00000000 1.0
25.00000000 6.00000000 1.0
26.00000000 6.00000000 1.0
27.00000000 6.00000000 1.0
28.00000000 6.00000000 1.0
29.00000000 6.00000000 1.0
30.00000000 6.00000000 1.0
31.00000000 6.00000000 1.0
32.00000000 6.00000000 1.0
33.00000000 6.00000000 1.0
34.00000000 6.00000000 1.0
35.00000000 6.00000000 1.0
36.00000000 6.00000000 1.0
37.00000000 6.00000000 1.0
38.00000000 6.00000000 1.0
39.00000000 6.00000000 1.0
0.00000000 7.00000000 1.0
1.00000000 7.00000000 1.0
2.00000000 7.00000000 1.0
3.00000000 7.00000000 1.0
4.00000000 7.00000000 1.0
5.00000000 7.00000000 1.0
6.00000000 7.00000000 1.0
7.00000000 7.00000000 1.0
8.00000000 7.00000000 1.0
9.00000000 7.00000000 1.0
10.00000000 7.00000000 1.0
11.00000000 7.00000000 1.0
12.00000000 7.00000000 1.0
13.00000000 7.00000000 1.0
14.00000000 7.00000000 1.0
15.00000000 7.00000000 1.0
16.00000000 7.00000000 1.0
17.00000000 7.00000000 1.0
18.00000000 7.00000000 1.0
19.00000000 7.00000000 1.0
20.00000000 7.00000000 1.0
21.00000000 7.00000000 1.0
22.00000000 7.00000000 1.0
23.00000000 7.00000000 1.0
24.00000000 7.00000000 1.0
25.00000000 7.00000000 1.0
26.00000000 7.00000000 1.0
27.00000000 7.00000000 1.0
28.00000000 7.00000000 1.0
29.00000000 7.00000000 1.0
30.00000000 7.00000000 1.0
31.00000000 7.00000000 1.0
32.00000000 7.00000000 1.0
33.00000000 7.00000000 1.0
34.00000000 7.00000000 1.0
35.00000000 7.00000000 1.0
36.00000000 7.00000000 1.0
37.00000000 7.00000000 1.0
38.00000000 7.00000000 1.0
39.00000000 7.00000000 1.0
0.00000000 8.00000000 1.0
1.00000000 8.00000000 1.0
2.00000000 8.00000000 1.0
3.00000000 8.00000000 1.0
4.00000000 8.00000000 1.0
5.00000000 8.00000000 1.0
6.00000000 8.00000000 1.0
7.00000000 8.00000000 1.0
8.00000000 8.00000000 1.0
9.00000000 8.00000000 1.0
10.00000000 8.00000000 1.0
11.00000000 8.00000000 1.0
12.00000000 8.00000000 1.0
13.00000000 8.00000000 1.0
14.00000000 8.00000000 1.0
15.00000000 8.00000000 1.0
16.00000000 8.00000000 1.0
17.00000000 8.00000000 1.0
18.00000000 8.00000000 1.0
19.00000000 8.00000000 1.0
20.00000000 8.00000000 1.0
21.00000000 8.00000000 1.0
22.00000000 8.00000000 1.0
23.00000000 8.00000000 1.0
24.00000000 8.00000000 1.0
25.00000000 8.00000000 1.0
26.00000000 8.00000000 1.0
27.00000000 8.00000000 1.0
28.00000000 8.00000000 1.0
29.00000000 8.00000000 1.0
30.00000000 8.00000000 1.0
31.00000000 8.00000000 1.0
32.00000000 8.00000000 1.0
33.00000000 8.00000000 1.0
34.00000000 8.00000000 1.0
35.00000000 8.00000000 1.0
36.00000000 8.00000000 1.0
37.00000000 8.00000000 1.0
38.00000000 8.00000000 1.0
39.00000000 8.00000000 1.0
0.00000000 9.00000000 1.0
1.00000000 9.00000000 1.0
2.00000000 9.00000000 1.0
3.00000000 9.00000000 1.0
4.00000000 9.00000000 1.0
5.00000000 9.00000000 1.0
6.00000000 9.00000000 1.0
7.00000000 9.00000000 1.0
8.00000000 9.00000000 1.0
[...]
POINT_DATA 1600
VECTORS velocity double
0.00000000 0.00002341 0.0
0.00000025 -0.00002352 0.0
0.00000045 -0.00000109 0.0
0.00000057 0.00005562 0.0
0.00000060 0.00012183 0.0
0.00000056 0.00018507 0.0
0.00000045 0.00023976 0.0
0.00000031 0.00028356 0.0
0.00000014 0.00031574 0.0
-0.00000005 0.00033635 0.0
-0.00000025 0.00034586 0.0
-0.00000045 0.00034497 0.0
-0.00000063 0.00033454 0.0
-0.00000081 0.00031553 0.0
-0.00000097 0.00028891 0.0
-0.00000112 0.00025572 0.0
-0.00000123 0.00021697 0.0
-0.00000133 0.00017369 0.0
-0.00000140 0.00012690 0.0
-0.00000144 0.00007760 0.0
-0.00000146 0.00002678 0.0
-0.00000144 -0.00002457 0.0
-0.00000140 -0.00007546 0.0
-0.00000133 -0.00012490 0.0
-0.00000124 -0.00017188 0.0
-0.00000112 -0.00021537 0.0
-0.00000098 -0.00025434 0.0
-0.00000081 -0.00028775 0.0
-0.00000064 -0.00031454 0.0
-0.00000045 -0.00033367 0.0
-0.00000025 -0.00034414 0.0
-0.00000005 -0.00034498 0.0
0.00000014 -0.00033535 0.0
0.00000031 -0.00031454 0.0
0.00000046 -0.00028211 0.0
0.00000056 -0.00023804 0.0
0.00000060 -0.00018311 0.0
0.00000057 -0.00011966 0.0
0.00000045 -0.00005335 0.0
0.00000024 0.00000328 0.0
0.00000000 0.00007125 0.0
0.00009284 -0.00007176 0.0
0.00005508 0.00005211 0.0
-0.00017063 0.00029767 0.0
-0.00060997 0.00057865 0.0
-0.00125524 0.00084904 0.0
-0.00208121 0.00108553 0.0
-0.00305397 0.00127703 0.0
-0.00413595 0.00141904 0.0
-0.00528875 0.00151076 0.0
-0.00647494 0.00155353 0.0
-0.00765904 0.00155006 0.0
-0.00880825 0.00150385 0.0
-0.00989284 0.00141894 0.0
-0.01088641 0.00129968 0.0
-0.01176604 0.00115061 0.0
-0.01251236 0.00097631 0.0
-0.01310951 0.00078141 0.0
-0.01354521 0.00057050 0.0
-0.01381065 0.00034814 0.0
-0.01390052 0.00011886 0.0
-0.01381297 -0.00011282 0.0
-0.01354962 -0.00034240 0.0
-0.01311558 -0.00056533 0.0
-0.01251948 -0.00077703 0.0
-0.01177352 -0.00097286 0.0
-0.01089351 -0.00114812 0.0
-0.00989888 -0.00129810 0.0
-0.00881267 -0.00141809 0.0
-0.00766148 -0.00150348 0.0
-0.00647526 -0.00154986 0.0
-0.00528709 -0.00155316 0.0
-0.00413269 -0.00150986 0.0
-0.00304974 -0.00141733 0.0
-0.00207677 -0.00127431 0.0
-0.00125140 -0.00108172 0.0
-0.00060746 -0.00084423 0.0
-0.00016999 -0.00057311 0.0
0.00005371 -0.00029188 0.0
0.00008992 -0.00004687 0.0
0.00000000 0.00006527 0.0
0.00002310 -0.00006624 0.0
-0.00021160 0.00028680 0.0
-0.00077388 0.00085995 0.0
-0.00169370 0.00149846 0.0
-0.00295795 0.00211329 0.0
-0.00452702 0.00265460 0.0
-0.00634594 0.00309595 0.0
-0.00835184 0.00342494 0.0
-0.01047895 0.00363787 0.0
-0.01266189 0.00373647 0.0
-0.01483786 0.00372604 0.0
-0.01694817 0.00361415 0.0
-0.01893916 0.00340994 0.0
-0.02076291 0.00312343 0.0
-0.02237758 0.00276527 0.0
-0.02374763 0.00234636 0.0
-0.02484396 0.00187774 0.0
-0.02564390 0.00137044 0.0
-0.02613121 0.00083546 0.0
-0.02629610 0.00028375 0.0
-0.02613515 -0.00027377 0.0
-0.02565138 -0.00082616 0.0
-0.02485427 -0.00136244 0.0
-0.02375978 -0.00187153 0.0
-0.02239039 -0.00234225 0.0
-0.02077517 -0.00276334 0.0
-0.01894972 -0.00312354 0.0
-0.01695609 -0.00341172 0.0
-0.01484252 -0.00361705 0.0
-0.01266305 -0.00372934 0.0
-0.01047680 -0.00373940 0.0
-0.00834699 -0.00363967 0.0
-0.00633936 -0.00342496 0.0
-0.00451992 -0.00309374 0.0
-0.00295160 -0.00265004 0.0
-0.00168922 -0.00210661 0.0
-0.00077202 -0.00149031 0.0
-0.00021243 -0.00085147 0.0
0.00002038 -0.00027968 0.0
0.00000000 -0.00006066 0.0
-0.00009902 0.00005946 0.0
-0.00060853 0.00079632 0.0
-0.00157099 0.00182241 0.0
-0.00300224 0.00292972 0.0
-0.00487795 0.00398900 0.0
-0.00714554 0.00492219 0.0
-0.00973414 0.00568454 0.0
-0.01256232 0.00625312 0.0
-0.01554397 0.00661952 0.0
-0.01859253 0.00678504 0.0
-0.02162410 0.00675760 0.0
-0.02455959 0.00654965 0.0
-0.02732630 0.00617665 0.0
-0.02985893 0.00565606 0.0
-0.03210023 0.00500657 0.0
-0.03400145 0.00424758 0.0
-0.03552253 0.00339882 0.0
-0.03663225 0.00248015 0.0
-0.03730819 0.00151140 0.0
-0.03753682 0.00051238 0.0
-0.03731347 -0.00049713 0.0
-0.03664231 -0.00149732 0.0
-0.03553644 -0.00246831 0.0
-0.03401791 -0.00339006 0.0
-0.03211772 -0.00424244 0.0
-0.02987585 -0.00500520 0.0
-0.02734116 -0.00565823 0.0
-0.02457113 -0.00618175 0.0
-0.02163146 -0.00655672 0.0
-0.01859535 -0.00676545 0.0
-0.01554242 -0.00679233 0.0
-0.01255712 -0.00662497 0.0
-0.00972645 -0.00625563 0.0
-0.00713685 -0.00568335 0.0
-0.00486982 -0.00491707 0.0
-0.00299607 -0.00398035 0.0
-0.00156772 -0.00291866 0.0
-0.00060836 -0.00181083 0.0
-0.00010120 -0.00078684 0.0
0.00000000 -0.00031593 0.0
-0.00023091 0.00031466 0.0
-0.00104279 0.00160820 0.0
-0.00243404 0.00321365 0.0
-0.00439351 0.00488919 0.0
-0.00687841 0.00647390 0.0
-0.00982065 0.00786444 0.0
-0.01313419 0.00899807 0.0
-0.01672178 0.00984072 0.0
-0.02048079 0.01037852 0.0
-0.02430772 0.01061196 0.0
-0.02810183 0.01055171 0.0
-0.03176778 0.01021560 0.0
-0.03521756 0.00962643 0.0
-0.03837188 0.00881038 0.0
-0.04116105 0.00779574 0.0
-0.04352558 0.00661211 0.0
-0.04541653 0.00528978 0.0
-0.04679568 0.00385930 0.0
-0.04763562 0.00235133 0.0
-0.04791975 0.00079651 0.0
-0.04764234 -0.00077453 0.0
-0.04680854 -0.00233113 0.0
-0.04543438 -0.00384247 0.0
-0.04354685 -0.00527759 0.0
-0.04118389 -0.00660539 0.0
-0.03839435 -0.00779475 0.0
-0.03523779 -0.00881479 0.0
-0.03178418 -0.00963536 0.0
-0.02811328 -0.01022762 0.0
-0.02431366 -0.01056507 0.0
-0.02048130 -0.01062469 0.0
-0.01671759 -0.01038868 0.0
-0.01312657 -0.00984665 0.0
-0.00981128 -0.00899864 0.0
-0.00686911 -0.00785924 0.0
-0.00438598 -0.00646349 0.0
-0.00242948 -0.00487516 0.0
-0.00104166 -0.00319866 0.0
-0.00023264 -0.00159586 0.0
0.00000000 -0.00069578 0.0
-0.00035814 0.00069457 0.0
-0.00147476 0.00272481 0.0
-0.00330205 0.00504094 0.0
-0.00579545 0.00738258 0.0
-0.00888800 0.00956646 0.0
-0.01249259 0.01146902 0.0
-0.01650656 0.01301205 0.0
-0.02081719 0.01415135 0.0
-0.02530679 0.01486812 0.0
-0.02985721 0.01516238 0.0
-0.03435353 0.01504803 0.0
-0.03868694 0.01454900 0.0
-0.04275689 0.01369638 0.0
-0.04647269 0.01252618 0.0
-0.04975457 0.01107763 0.0
-0.05253441 0.00939195 0.0
-0.05475610 0.00751146 0.0
-0.05637581 0.00547901 0.0
-0.05736209 0.00333762 0.0
-0.05769592 0.00113034 0.0
-0.05737069 -0.00109976 0.0
-0.05639230 -0.00330952 0.0
-0.05477913 -0.00545564 0.0
-0.05256211 -0.00749462 0.0
-0.04978471 -0.00938279 0.0
-0.04650288 -0.01107657 0.0
-0.04278485 -0.01253282 0.0
-0.03871067 -0.01370953 0.0
-0.03437154 -0.01456676 0.0
-0.02986864 -0.01506797 0.0
-0.02531154 -0.01518180 0.0
-0.02081590 -0.01488431 0.0
-0.01650057 -0.01416199 0.0
-0.01248372 -0.01301548 0.0
-0.00887836 -0.01146460 0.0
-0.00578706 -0.00955479 0.0
-0.00329651 -0.00736570 0.0
-0.00147285 -0.00502232 0.0
-0.00035954 -0.00270916 0.0
0.00000000 -0.00119234 0.0
-0.00047735 0.00119127 0.0
-0.00189142 0.00413889 0.0
-0.00415205 0.00730157 0.0
-0.00717934 0.01040987 0.0
-0.01087875 0.01326586 0.0
-0.01514089 0.01573117 0.0
-0.01984441 0.01771557 0.0
-0.02486008 0.01916702 0.0
-0.03005525 0.02006329 0.0
-0.03529796 0.02040510 0.0
-0.04046051 0.02021058 0.0
-0.04542235 0.01951084 0.0
-0.05007229 0.01834633 0.0
-0.05431019 0.01676407 0.0
-0.05804803 0.01481547 0.0
-0.06121069 0.01255461 0.0
-0.06373636 0.01003713 0.0
-0.06557677 0.00731943 0.0
-0.06669730 0.00445814 0.0
-0.06707697 0.00151001 0.0
-0.06670851 -0.00146822 0.0
-0.06559835 -0.00441968 0.0
-0.06376667 -0.00728731 0.0
-0.06124748 -0.01001381 0.0
-0.05808860 -0.01254167 0.0
-0.05435162 -0.01481355 0.0
-0.05011171 -0.01677273 0.0
-0.04545720 -0.01836405 0.0
-0.04048878 -0.01953518 0.0
-0.03531836 -0.02023838 0.0
-0.03006737 -0.02043279 0.0
-0.02486439 -0.02008729 0.0
-0.01984223 -0.01918415 0.0
-0.01513421 -0.01772350 0.0
-0.01086996 -0.01572885 0.0
-0.00717088 -0.01325387 0.0
-0.00414597 -0.01039061 0.0
-0.00188898 -0.00727931 0.0
-0.00047850 -0.00411964 0.0
0.00000000 -0.00179870 0.0
-0.00058936 0.00179782 0.0
-0.00229241 0.00584193 0.0
-0.00498150 0.00999066 0.0
-0.00854195 0.01397031 0.0
-0.01284976 0.01757368 0.0
-0.01777089 0.02065229 0.0
-0.02316304 0.02310772 0.0
-0.02887900 0.02488298 0.0
-0.03477039 0.02595468 0.0
-0.04069139 0.02632609 0.0
-0.04650203 0.02602123 0.0
-0.05207099 0.02507980 0.0
-0.05727769 0.02355303 0.0
-0.06201388 0.02150026 0.0
-0.06618472 0.01898631 0.0
-0.06970945 0.01607933 0.0
-0.07252173 0.01284942 0.0
-0.07456985 0.00936755 0.0
-0.07581674 0.00570503 0.0
-0.07623992 0.00193320 0.0
-0.07583159 -0.00187656 0.0
-0.07459853 -0.00565274 0.0
-0.07256225 -0.00932359 0.0
-0.06975905 -0.01281700 0.0
-0.06624009 -0.01606064 0.0
-0.06207137 -0.01898227 0.0
-0.05733367 -0.02151042 0.0
-0.05212215 -0.02357557 0.0
-0.04654562 -0.02511170 0.0
-0.04072552 -0.02605849 0.0
-0.03479418 -0.02636413 0.0
-0.02889263 -0.02598884 0.0
-0.02316774 -0.02490904 0.0
-0.01776877 -0.02312247 0.0
-0.01284354 -0.02065408 0.0
-0.00853454 -0.01756287 0.0
-0.00497556 -0.01394959 0.0
-0.00228974 -0.00996514 0.0
-0.00059036 -0.00581901 0.0
0.00000000 -0.00251036 0.0
-0.00069648 0.00250973 0.0
-0.00268294 0.00782839 0.0
-0.00579826 0.01310599 0.0
-0.00989408 0.01806612 0.0
-0.01481606 0.02249566 0.0
-0.02040363 0.02623986 0.0
-0.02649159 0.02919568 0.0
-0.03291302 0.03130441 0.0
-0.03950267 0.03254433 0.0
-0.04610029 0.03292371 0.0
-0.05255365 0.03247460 0.0
-0.05872109 0.03124724 0.0
-0.06447339 0.02930533 0.0
-0.06969522 0.02672209 0.0
-0.07428600 0.02357708 0.0
-0.07816043 0.01995376 0.0
-0.08124868 0.01593767 0.0
-0.08349645 0.01161532 0.0
-0.08486485 0.00707342 0.0
-0.08533033 0.00239868 0.0
-0.08488464 -0.00232225 0.0
-0.08353477 -0.00700261 0.0
-0.08130312 -0.01155524 0.0
-0.07822757 -0.01589255 0.0
-0.07436170 -0.01992651 0.0
-0.06977493 -0.02356904 0.0
-0.06455247 -0.02673288 0.0
-0.05879521 -0.02933284 0.0
-0.05261911 -0.03128779 0.0
-0.04615435 -0.03252325 0.0
-0.03954376 -0.03297472 0.0
-0.03294087 -0.03259172 0.0
-0.02650724 -0.03134267 0.0
-0.02040928 -0.02922044 0.0
-0.01481476 -0.02624860 0.0
-0.00988930 -0.02248832 0.0
-0.00579337 -0.01804552 0.0
-0.00268047 -0.01307804 0.0
-0.00069743 -0.00780205 0.0
0.00000000 -0.00332561 0.0
-0.00080136 0.00332526 0.0
-0.00307045 0.01009748 0.0
-0.00661494 0.01665048 0.0
-0.01125359 0.02270478 0.0
-0.01680107 0.02804315 0.0
-0.02306871 0.03250749 0.0
-0.02986655 0.03599352 0.0
-0.03700631 0.03844417 0.0
-0.04430454 0.03984256 0.0
-0.05158576 0.04020493 0.0
-0.05868517 0.03957401 0.0
-0.06545091 0.03801298 0.0
-0.07174566 0.03560008 0.0
-0.07744778 0.03242420 0.0
-0.08245187 0.02858118 0.0
-0.08666908 0.02417096 0.0
-0.09002700 0.01929560 0.0
-0.09246953 0.01405785 0.0
-0.09395659 0.00856048 0.0
-0.09446391 0.00290600 0.0
-0.09398289 -0.00280327 0.0
-0.09252059 -0.00846491 0.0
-0.09009983 -0.01397600 0.0
-0.08675946 -0.01923292 0.0
-0.08255465 -0.02413132 0.0
-0.07755721 -0.02856648 0.0
-0.07185584 -0.03243425 0.0
-0.06555619 -0.03563249 0.0
-0.05878059 -0.03806338 0.0
-0.05166745 -0.03963640 0.0
-0.04437001 -0.04027216 0.0
-0.03705462 -0.03990711 0.0
-0.02989840 -0.03849889 0.0
-0.02308629 -0.03603255 0.0
-0.01680778 -0.03252711 0.0
-0.01125355 -0.02804256 0.0
-0.00661233 -0.02268673 0.0
-0.00306875 -0.01662162 0.0
-0.00080243 -0.01006837 0.0
0.00000000 -0.00424541 0.0
-0.00090665 0.00424540 0.0
-0.00346294 0.01265377 0.0
-0.00744583 0.02063336 0.0
-0.01264123 0.02790018 0.0
-0.01883183 0.03423374 0.0
-0.02579928 0.03947494 0.0
-0.03332711 0.04352135 0.0
-0.04120396 0.04632102 0.0
-0.04922687 0.04786546 0.0
-0.05720423 0.04818228 0.0
-0.06495829 0.04732807 0.0
-0.07232704 0.04538173 0.0
-0.07916551 0.04243855 0.0
-0.08534646 0.03860515 0.0
-0.09076058 0.03399530 0.0
-0.09531639 0.02872678 0.0
-0.09893985 0.02291905 0.0
-0.10157384 0.01669184 0.0
-0.10317769 0.01016434 0.0
-0.10372680 0.00345511 0.0
-0.10321233 -0.00331775 0.0
-0.10164121 -0.01003603 0.0
-0.09903629 -0.01658092 0.0
-0.09543669 -0.02283252 0.0
-0.09089832 -0.02866969 0.0
-0.08549445 -0.03397036 0.0
-0.07931624 -0.03861245 0.0
-0.07247322 -0.04247551 0.0
-0.06509336 -0.04544324 0.0
-0.05732285 -0.04740691 0.0
-0.04932531 -0.04826971 0.0
-0.04128037 -0.04795205 0.0
-0.03338164 -0.04639762 0.0
-0.02583401 -0.04358017 0.0
-0.01885047 -0.03951065 0.0
-0.01264860 -0.03424443 0.0
-0.00744711 -0.02788822 0.0
-0.00346276 -0.02060597 0.0
-0.00090803 -0.01262310 0.0
0.00000000 -0.00527327 0.0
-0.00101478 0.00527362 0.0
-0.00386822 0.01550721 0.0
-0.00830535 0.02507049 0.0
-0.01407819 0.03367301 0.0
-0.02093592 0.04109147 0.0
-0.02862869 0.04716772 0.0
-0.03691162 0.05180428 0.0
-0.04554859 0.05495799 0.0
-0.05431579 0.05663266 0.0
-0.06300466 0.05687115 0.0
-0.07142415 0.05574756 0.0
-0.07940226 0.05335984 0.0
-0.08678686 0.04982316 0.0
-0.09344593 0.04526421 0.0
-0.09926723 0.03981660 0.0
-0.10415771 0.03361726 0.0
-0.10804268 0.02680401 0.0
-0.11086487 0.01951403 0.0
-0.11258372 0.01188319 0.0
-0.11317464 0.00404603 0.0
-0.11262872 -0.00386367 0.0
-0.11095258 -0.01171217 0.0
-0.10816860 -0.01936489 0.0
-0.10431547 -0.02668565 0.0
-0.09944890 -0.03353626 0.0
-0.09364256 -0.03977671 0.0
-0.08698900 -0.04526600 0.0
-0.07960061 -0.04986391 0.0
-0.07161015 -0.05343369 0.0
-0.06317112 -0.05584594 0.0
-0.05445737 -0.05698345 0.0
-0.04566221 -0.05674721 0.0
-0.03699665 -0.05506318 0.0
-0.02868692 -0.05188989 0.0
-0.02097131 -0.04722626 0.0
-0.01409630 -0.04111944 0.0
-0.00831252 -0.03367200 0.0
-0.00387052 -0.02504797 0.0
-0.00101674 -0.01547688 0.0
0.00000000 -0.00641494 0.0
-0.00112794 0.00641570 0.0
-0.00429358 0.01867284 0.0
-0.00920718 0.02998409 0.0
-0.01558473 0.04005056 0.0
-0.02313962 0.04864636 0.0
-0.03158823 0.05561633 0.0
-0.04065513 0.06087118 0.0
-0.05007771 0.06438057 0.0
-0.05961006 0.06616501 0.0
-0.06902593 0.06628702 0.0
-0.07812082 0.06484245 0.0
-0.08671308 0.06195209 0.0
-0.09464418 0.05775425 0.0
-0.10177834 0.05239837 0.0
-0.10800160 0.04603987 0.0
-0.11322059 0.03883626 0.0
-0.11736113 0.03094455 0.0
-0.12036685 0.02251975 0.0
-0.12219800 0.01371434 0.0
-0.12283055 0.00467858 0.0
-0.12225560 -0.00443861 0.0
-0.12047927 -0.01348850 0.0
-0.11752296 -0.02232120 0.0
-0.11342408 -0.03078453 0.0
-0.10823708 -0.03872326 0.0
-0.10203478 -0.04597900 0.0
-0.09490986 -0.05239093 0.0
-0.08697627 -0.05779750 0.0
-0.07837055 -0.06203941 0.0
-0.06925270 -0.06496379 0.0
-0.05980652 -0.06642964 0.0
-0.05023916 -0.06631457 0.0
-0.04077983 -0.06452251 0.0
-0.03167748 -0.06099224 0.0
-0.02319752 -0.05570622 0.0
-0.01561761 -0.04869935 0.0
-0.00922270 -0.04006691 0.0
-0.00429953 -0.02997114 0.0
-0.00113080 -0.01864560 0.0
0.00000000 -0.00767826 0.0
-0.00124811 0.00767948 0.0
-0.00474568 0.02217041 0.0
-0.01016391 0.03540233 0.0
-0.01717945 0.04706610 0.0
-0.02546676 0.05693366 0.0
-0.03470557 0.06485514 0.0
-0.04458752 0.07075312 0.0
-0.05482163 0.07461469 0.0
-0.06513870 0.07648208 0.0
-0.07529432 0.07644263 0.0
-0.08507063 0.07461877 0.0
-0.09427701 0.07115848 0.0
-0.10274966 0.06622690 0.0
-0.11035045 0.05999916 0.0
-0.11696523 0.05265464 0.0
-0.12250185 0.04437288 0.0
-0.12688809 0.03533079 0.0
-0.13006969 0.02570134 0.0
-0.13200866 0.01565331 0.0
-0.13268206 0.00535198 0.0
-0.13208120 -0.00503947 0.0
-0.13021145 -0.01535825 0.0
-0.12709262 -0.02544003 0.0
-0.12275985 -0.03511730 0.0
-0.11726506 -0.04421805 0.0
-0.11067873 -0.05256533 0.0
-0.10309202 -0.05997764 0.0
-0.09461890 -0.06627063 0.0
-0.08539819 -0.07126012 0.0
-0.07559529 -0.07476668 0.0
-0.06540324 -0.07662168 0.0
-0.05504296 -0.07667485 0.0
-0.04476242 -0.07480306 0.0
-0.03483455 -0.07092010 0.0
-0.02555390 -0.06498687 0.0
-0.01723185 -0.05702140 0.0
-0.01019070 -0.04710807 0.0
-0.00475669 -0.03540515 0.0
-0.00125228 -0.02215002 0.0
0.00000000 -0.00907292 0.0
-0.00137706 0.00907466 0.0
-0.00523057 0.02602391 0.0
-0.01118694 0.04135870 0.0
-0.01887893 0.05475810 0.0
-0.02793800 0.06599273 0.0
-0.03800374 0.07492088 0.0
-0.04873203 0.08148141 0.0
-0.05980160 0.08568426 0.0
-0.07091886 0.08759934 0.0
-0.08182099 0.08734476 0.0
-0.09227735 0.08507513 0.0
-0.10208951 0.08097063 0.0
-0.11108998 0.07522737 0.0
-0.11914018 0.06804936 0.0
-0.12612780 0.05964226 0.0
-0.13196388 0.05020896 0.0
-0.13657992 0.03994683 0.0
-0.13992525 0.02904667 0.0
-0.14196476 0.01769283 0.0
-0.14267730 0.00606452 0.0
-0.14205459 -0.00566218 0.0
-0.14010101 -0.01731183 0.0
-0.13683403 -0.02870702 0.0
-0.13228537 -0.03966596 0.0
-0.12650286 -0.05000056 0.0
-0.11955281 -0.05951538 0.0
-0.11152281 -0.06800763 0.0
-0.10252478 -0.07526866 0.0
-0.09269788 -0.08108702 0.0
-0.08221124 -0.08525333 0.0
-0.07126595 -0.08756697 0.0
-0.06009618 -0.08784462 0.0
-0.04896893 -0.08593030 0.0
-0.03818232 -0.08170671 0.0
-0.02806210 -0.07510709 0.0
-0.01895633 -0.06612716 0.0
-0.01122839 -0.05483601 0.0
-0.00524831 -0.04138522 0.0
-0.00138300 -0.02601533 0.0
0.00000000 -0.01061033 0.0
-0.00151640 0.01061266 0.0
-0.00575374 0.03026125 0.0
-0.01228644 0.04789139 0.0
-0.02069759 0.06316925 0.0
-0.03057051 0.07586565 0.0
-0.04150038 0.08585075 0.0
-0.05310414 0.09308517 0.0
-0.06502818 0.09760829 0.0
-0.07695362 0.09952478 0.0
-0.08859942 0.09899056 0.0
-0.09972322 0.09619893 0.0
-0.11012055 0.09136796 0.0
-0.11962253 0.08472935 0.0
-0.12809266 0.07651949 0.0
-0.13542303 0.06697264 0.0
-0.14153033 0.05631626 0.0
-0.14635200 0.04476850 0.0
-0.14984275 0.03253742 0.0
-0.15197173 0.01982181 0.0
-0.15272036 0.00681315 0.0
-0.15208108 -0.00630146 0.0
-0.15005698 -0.01933593 0.0
-0.14666232 -0.03210167 0.0
-0.14192403 -0.04440425 0.0
-0.13588398 -0.05604062 0.0
-0.12860205 -0.06679732 0.0
-0.12015974 -0.07644994 0.0
-0.11066422 -0.08476418 0.0
-0.10025240 -0.09149884 0.0
-0.08909478 -0.09641095 0.0
-0.07739869 -0.09926305 0.0
-0.06541045 -0.09983286 0.0
-0.05341596 -0.09792479 0.0
-0.04173950 -0.09338317 0.0
-0.03074020 -0.08610639 0.0
-0.02080622 -0.07606115 0.0
-0.01234646 -0.06329577 0.0
-0.00578015 -0.04795153 0.0
-0.00152466 -0.03027082 0.0
0.00000000 -0.01230356 0.0
-0.00166762 0.01230656 0.0
-0.00632030 0.03491393 0.0
-0.01347158 0.05504267 0.0
-0.02264778 0.07234545 0.0
-0.03337775 0.08659562 0.0
-0.04520721 0.09768021 0.0
-0.05771055 0.10558851 0.0
-0.07049969 0.11039744 0.0
-0.08322992 0.11225501 0.0
-0.09560264 0.11136328 0.0
-0.10736560 0.10796190 0.0
-0.11831088 0.10231324 0.0
-0.12827129 0.09468975 0.0
-0.13711569 0.08536390 0.0
-0.14474387 0.07460081 0.0
-0.15108119 0.06265358 0.0
-0.15607371 0.04976102 0.0
-0.15968371 0.03614743 0.0
-0.16188618 0.02202427 0.0
-0.16266612 0.00759309 0.0
-0.16201702 -0.00695056 0.0
-0.15994034 -0.02141261 0.0
-0.15644616 -0.03559585 0.0
-0.15155499 -0.04929542 0.0
-0.14530052 -0.06229508 0.0
-0.13773347 -0.07436436 0.0
-0.12892615 -0.08525726 0.0
-0.11897758 -0.09471274 0.0
-0.10801902 -0.10245741 0.0
-0.09621915 -0.10821081 0.0
-0.08378889 -0.11169332 0.0
-0.07098482 -0.11263693 0.0
-0.05811106 -0.11079855 0.0
-0.04551869 -0.10597553 0.0
-0.03360250 -0.09802258 0.0
-0.02279453 -0.08686911 0.0
-0.01355455 -0.07253575 0.0
-0.00635755 -0.05514853 0.0
-0.00167884 -0.03494952 0.0
0.00000000 -0.01416728 0.0
-0.00183220 0.01417105 0.0
-0.00693510 0.04001684 0.0
-0.01475077 0.06285834 0.0
-0.02473994 0.08233462 0.0
-0.03636945 0.09822513 0.0
-0.04912959 0.11044035 0.0
-0.06254815 0.11900707 0.0
-0.07620059 0.12404987 0.0
-0.08971616 0.12577058 0.0
-0.10278024 0.12442736 0.0
-0.11513339 0.12031505 0.0
-0.12656784 0.11374769 0.0
-0.13692216 0.10504407 0.0
-0.14607481 0.09451654 0.0
-0.15393729 0.08246329 0.0
-0.16044740 0.06916369 0.0
-0.16556294 0.05487656 0.0
-0.16925635 0.03984084 0.0
-0.17151033 0.02427824 0.0
-0.17231461 0.00839738 0.0
-0.17166413 -0.00760104 0.0
-0.16955836 -0.02351839 0.0
-0.16600210 -0.03915210 0.0
-0.16100756 -0.05428996 0.0
-0.15459771 -0.06870493 0.0
-0.14681087 -0.08215121 0.0
-0.13770632 -0.09436181 0.0
-0.12737084 -0.10504822 0.0
-0.11592561 -0.11390263 0.0
-0.10353334 -0.12060308 0.0
-0.09040475 -0.12482192 0.0
-0.07680390 -0.12623778 0.0
-0.06305159 -0.12455086 0.0
-0.04952591 -0.11950121 0.0
-0.03665944 -0.11088906 0.0
-0.02493235 -0.09859620 0.0
-0.01486153 -0.08260657 0.0
-0.00698565 -0.06302440 0.0
-0.00184709 -0.04008807 0.0
0.00000000 -0.01621788 0.0
-0.00201165 0.01622253 0.0
-0.00760306 0.04560825 0.0
-0.01613200 0.07138728 0.0
-0.02698301 0.09318562 0.0
-0.03955176 0.11079388 0.0
-0.05326618 0.12415477 0.0