# vtk DataFile Version 4.0
2D velocity field
ASCII
DATASET STRUCTURED_GRID
DIMENSIONS 40 40 1
POINTS 1600 float
0.00000000 0.00000000 1.0
1.00000000 0.00000000 1.0
2.00000000 0.00000000 1.0
3.00000000 0.00000000 1.0
4.00000000 0.00000000 1.0
5.00000000 0.00000000 1.0
6.00000000 0.00000000 1.0
7.00000000 0.00000000 1.0
8.00000000 0.00000000 1.0
9.00000000 0.00000000 1.0
10.00000000 0.00000000 1.0
11.00000000 0.00000000 1.0
12.00000000 0.00000000 1.0
13.00000000 0.00000000 1.0
14.00000000 0.00000000 1.0
15.00000000 0.00000000 1.0
16.00000000 0.00000000 1.0
17.00000000 0.00000000 1.0
18.00000000 0.00000000 1.0
19.00000000 0.00000000 1.0
20.00000000 0.00000000 1.0
21.00000000 0.00000000 1.0
22.00000000 0.00000000 1.0
23.00000000 0.00000000 1.0
24.00000000 0.00000000 1.0
25.00000000 0.00000000 1.0
26.00000000 0.00000000 1.0
27.00000000 0.00000000 1.0
28.00000000 0.00000000 1.0
29.00000000 0.00000000 1.0
30.00000000 0.00000000 1.0
31.00000000 0.00000000 1.0
32.00000000 0.00000000 1.0
33.00000000 0.00000000 1.0
34.00000000 0.00000000 1.0
35.00000000 0.00000000 1.0
36.00000000 0.00000000 1.0
37.00000000 0.00000000 1.0
38.00000000 0.00000000 1.0
39.00000000 0.00000000 1.0
0.00000000 1.00000000 1.0
1.00000000 1.00000000 1.0
2.00000000 1.00000000 1.0
3.00000000 1.00000000 1.0
4.00000000 1.00000000 1.0
5.00000000 1.00000000 1.0
6.00000000 1.00000000 1.0
7.00000000 1.00000000 1.0
8.00000000 1.00000000 1.0
9.00000000 1.00000000 1.0
10.00000000 1.00000000 1.0
11.00000000 1.00000000 1.0
12.00000000 1.00000000 1.0
13.00000000 1.00000000 1.0
14.00000000 1.00000000 1.0
15.00000000 1.00000000 1.0
16.00000000 1.00000000 1.0
17.00000000 1.00000000 1.0
18.00000000 1.00000000 1.0
19.00000000 1.00000000 1.0
20.00000000 1.00000000 1.0
21.00000000 1.00000000 1.0
22.00000000 1.00000000 1.0
23.00000000 1.00000000 1.0
24.00000000 1.00000000 1.0
25.00000000 1.00000000 1.0
26.00000000 1.00000000 1.0
27.00000000 1.00000000 1.0
28.00000000 1.00000000 1.0
29.00000000 1.00000000 1.0
30.00000000 1.00000000 1.0
31.00000000 1.00000000 1.0
32.00000000 1.00000000 1.0
33.00000000 1.00000000 1.0
34.00000000 1.00000000 1.0
35.00000000 1.00000000 1.0
36.00000000 1.00000000 1.0
37.00000000 1.00000000 1.0
38.00000000 1.00000000 1.0
39.00000000 1.00000000 1.0
0.00000000 2.00000000 1.0
1.00000000 2.00000000 1.0
2.00000000 2.00000000 1.0
3.00000000 2.00000000 1.0
4.00000000 2.00000000 1.0
5.00000000 2.00000000 1.0
6.00000000 2.00000000 1.0
7.00000000 2.00000000 1.0
8.00000000 2.00000000 1.0
9.00000000 2.00000000 1.0
10.00000000 2.00000000 1.0
11.00000000 2.00000000 1.0
12.00000000 2.00000000 1.0
13.00000000 2.00000000 1.0
14.00000000 2.00000000 1.0
15.00000000 2.00000000 1.0
16.00000000 2.00000000 1.0
17.00000000 2.00000000 1.0
18.00000000 2.00000000 1.0
19.00000000 2.00000000 1.0
20.00000000 2.00000000 1.0
21.00000000 2.00000000 1.0
22.00000000 2.00000000 1.0
23.00000000 2.00000000 1.0
24.00000000 2.00000000 1.0
25.00000000 2.00000000 1.0
26.00000000 2.00000000 1.0
27.00000000 2.00000000 1.0
28.00000000 2.00000000 1.0
29.00000000 2.00000000 1.0
30.00000000 2.00000000 1.0
31.00000000 2.00000000 1.0
32.00000000 2.00000000 1.0
33.00000000 2.00000000 1.0
34.00000000 2.00000000 1.0
35.00000000 2.00000000 1.0
36.00000000 2.00000000 1.0
37.00000000 2.00000000 1.0
38.00000000 2.00000000 1.0
39.00000000 2.00000000 1.0
0.00000000 3.00000000 1.0
1.00000000 3.00000000 1.0
2.00000000 3.00000000 1.0
3.00000000 3.00000000 1.0
4.00000000 3.00000000 1.0
5.00000000 3.00000000 1.0
6.00000000 3.00000000 1.0
7.00000000 3.00000000 1.0
8.00000000 3.00000000 1.0
9.00000000 3.00000000 1.0
10.00000000 3.00000000 1.0
11.00000000 3.00000000 1.0
12.00000000 3.00000000 1.0
13.00000000 3.00000000 1.0
14.00000000 3.00000000 1.0
15.00000000 3.00000000 1.0
16.00000000 3.00000000 1.0
17.00000000 3.00000000 1.0
18.00000000 3.00000000 1.0
19.00000000 3.00000000 1.0
20.00000000 3.00000000 1.0
21.00000000 3.00000000 1.0
22.00000000 3.00000000 1.0
23.00000000 3.00000000 1.0
24.00000000 3.00000000 1.0
25.00000000 3.00000000 1.0
26.00000000 3.00000000 1.0
27.00000000 3.00000000 1.0
28.00000000 3.00000000 1.0
29.00000000 3.00000000 1.0
30.00000000 3.00000000 1.0
31.00000000 3.00000000 1.0
32.00000000 3.00000000 1.0
33.00000000 3.00000000 1.0
34.00000000 3.00000000 1.0
35.00000000 3.00000000 1.0
36.00000000 3.00000000 1.0
37.00000000 3.00000000 1.0
38.00000000 3.00000000 1.0
39.00000000 3.00000000 1.0
0.00000000 4.00000000 1.0
1.00000000 4.00000000 1.0
2.00000000 4.00000000 1.0
3.00000000 4.00000000 1.0
4.00000000 4.00000000 1.0
5.00000000 4.00000000 1.0
6.00000000 4.00000000 1.0
7.00000000 4.00000000 1.0
8.00000000 4.00000000 1.0
9.00000000 4.00000000 1.0
10.00000000 4.00000000 1.0
11.00000000 4.00000000 1.0
12.00000000 4.00000000 1.0
13.00000000 4.00000000 1.0
14.00000000 4.00000000 1.0
15.00000000 4.00000000 1.0
16.00000000 4.00000000 1.0
17.00000000 4.00000000 1.0
18.00000000 4.00000000 1.0
19.00000000 4.00000000 1.0
20.00000000 4.00000000 1.0
21.00000000 4.00000000 1.0
22.00000000 4.00000000 1.0
23.00000000 4.00000000 1.0
24.00000000 4.00000000 1.0
25.00000000 4.00000000 1.0
26.00000000 4.00000000 1.0
27.00000000 4.00000000 1.0
28.00000000 4.00000000 1.0
29.00000000 4.00000000 1.0
30.00000000 4.00000000 1.0
31.00000000 4.00000000 1.0
32.00000000 4.00000000 1.0
33.00000000 4.00000000 1.0
34.00000000 4.00000000 1.0
35.00000000 4.00000000 1.0
36.00000000 4.00000000 1.0
37.00000000 4.00000000 1.0
38.00000000 4.00000000 1.0
39.00000000 4.00000000 1.0
0.00000000 5.00000000 1.0
1.00000000 5.00000000 1.0
2.00000000 5.00000000 1.0
3.00000000 5.00000000 1.0
4.00000000 5.00000000 1.0
5.00000000 5.00000000 1.0
6.00000000 5.00000000 1.0
7.00000000 5.00000000 1.0
8.00000000 5.00000000 1.0
9.00000000 5.00000000 1.0
10.00000000 5.00000000 1.0
11.00000000 5.00000000 1.0
12.00000000 5.00000000 1.0
13.00000000 5.00000000 1.0
14.00000000 5.00000000 1.0
15.00000000 5.00000000 1.0
16.00000000 5.00000000 1.0
17.00000000 5.00000000 1.0
18.00000000 5.00000000 1.0
19.00000000 5.00000000 1.0
20.00000000 5.00000000 1.0
21.00000000 5.00000000 1.0
22.00000000 5.00000000 1.0
23.00000000 5.00000000 1.0
24.00000000 5.00000000 1.0
25.00000000 5.00000000 1.0
26.00000000 5.00000000 1.0
27.00000000 5.00000000 1.0
28.00000000 5.00000000 1.0
29.00000000 5.00000000 1.0
30.00000000 5.00000000 1.0
31.00000000 5.00000000 1.0
32.00000000 5.00000000 1.0
33.00000000 5.00000000 1.0
34.00000000 5.00000000 1.0
35.00000000 5.00000000 1.0
36.00000000 5.00000000 1.0
37.00000000 5.00000000 1.0
38.00000000 5.00000000 1.0
39.00000000 5.00000000 1.0
0.00000000 6.00000000 1.0
1.00000000 6.00000000 1.0
2.00000000 6.00000000 1.0
3.00000000 6.00000000 1.0
4.00000000 6.00000000 1.0
5.00000000 6.00000000 1.0
6.00000000 6.00000000 1.0
7.00000000 6.00000000 1.0
8.00000000 6.00000000 1.0
9.00000000 6.00000000 1.0
10.00000000 6.00000000 1.0
11.00000000 6.00000000 1.0
12.00000000 6.00000000 1.0
13.00000000 6.00000000 1.0
14.00000000 6.00000000 1.0
15.00000000 6.00000000 1.0
16.00000000 6.00000000 1.0
17.00000000 6.00000000 1.0
18.00000000 6.00000000 1.0
19.00000000 6.00000000 1.0
20.00000000 6.00000000 1.0
21.00000000 6.00000000 1.0
22.00000000 6.00000000 1.0
23.00000000 6.00000000 1.0
24.00000000 6.00000000 1.0
25.00000000 6.00000000 1.0
26.00000000 6.00000000 1.0
27.00000000 6.00000000 1.0
28.00000000 6.00000000 1.0
29.00000000 6.00000000 1.0
30.00000000 6.00000000 1.0
31.00000000 6.00000000 1.0
32.00000000 6.00000000 1.0
33.00000000 6.00000000 1.0
34.00000000 6.00000000 1.0
35.00000000 6.00000000 1.0
36.00000000 6.00000000 1.0
37.00000000 6.00000000 1.0
38.00000000 6.00000000 1.0
39.00000000 6.00000000 1.0
0.00000000 7.00000000 1.0
1.00000000 7.00000000 1.0
2.00000000 7.00000000 1.0
3.00000000 7.00000000 1.0
4.00000000 7.00000000 1.0
5.00000000 7.00000000 1.0
6.00000000 7.00000000 1.0
7.00000000 7.00000000 1.0
8.00000000 7.00000000 1.0
9.00000000 7.00000000 1.0
10.00000000 7.00000000 1.0
11.00000000 7.00000000 1.0
12.00000000 7.00000000 1.0
13.00000000 7.00000000 1.0
14.00000000 7.00000000 1.0
15.00000000 7.00000000 1.0
16.00000000 7.00000000 1.0
17.00000000 7.00000000 1.0
18.00000000 7.00000000 1.0
19.00000000 7.00000000 1.0
20.00000000 7.00000000 1.0
21.00000000 7.00000000 1.0
22.00000000 7.00000000 1.0
23.00000000 7.00000000 1.0
24.00000000 7.00000000 1.0
25.00000000 7.00000000 1.0
26.00000000 7.00000000 1.0
27.00000000 7.00000000 1.0
28.00000000 7.00000000 1.0
29.00000000 7.00000000 1.0
30.00000000 7.00000000 1.0
31.00000000 7.00000000 1.0
32.00000000 7.00000000 1.0
33.00000000 7.00000000 1.0
34.00000000 7.00000000 1.0
35.00000000 7.00000000 1.0
36.00000000 7.00000000 1.0
37.00000000 7.00000000 1.0
38.00000000 7.00000000 1.0
39.00000000 7.00000000 1.0
0.00000000 8.00000000 1.0
1.00000000 8.00000000 1.0
2.00000000 8.00000000 1.0
3.00000000 8.00000000 1.0
4.00000000 8.00000000 1.0
5.00000000 8.00000000 1.0
6.00000000 8.00000000 1.0
7.00000000 8.00000000 1.0
8.00000000 8.00000000 1.0
9.00000000 8.00000000 1.0
10.00000000 8.00000000 1.0
11.00000000 8.00000000 1.0
12.00000000 8.00000000 1.0
13.00000000 8.00000000 1.0
14.00000000 8.00000000 1.0
15.00000000 8.00000000 1.0
16.00000000 8.00000000 1.0
17.00000000 8.00000000 1.0
18.00000000 8.00000000 1.0
19.00000000 8.00000000 1.0
20.00000000 8.00000000 1.0
21.00000000 8.00000000 1.0
22.00000000 8.00000000 1.0
23.00000000 8.00000000 1.0
24.00000000 8.00000000 1.0
25.00000000 8.00000000 1.0
26.00000000 8.00000000 1.0
27.00000000 8.00000000 1.0
28.00000000 8.00000000 1.0
29.00000000 8.00000000 1.0
30.00000000 8.00000000 1.0
31.00000000 8.00000000 1.0
32.00000000 8.00000000 1.0
33.00000000 8.00000000 1.0
34.00000000 8.00000000 1.0
35.00000000 8.00000000 1.0
36.00000000 8.00000000 1.0
37.00000000 8.00000000 1.0
38.00000000 8.00000000 1.0
39.00000000 8.00000000 1.0
0.00000000 9.00000000 1.0
1.00000000 9.00000000 1.0
2.00000000 9.00000000 1.0
3.00000000 9.00000000 1.0
4.00000000 9.00000000 1.0
5.00000000 9.00000000 1.0
6.00000000 9.00000000 1.0
7.00000000 9.00000000 1.0
8.00000000 9.00000000 1.0
[...]
POINT_DATA 1600
VECTORS velocity double
0.00000000 -0.00001093 0.0
0.00000035 0.00001085 0.0
0.00000037 0.00006733 0.0
0.00000034 0.00012910 0.0
0.00000023 0.00018127 0.0
0.00000008 0.00021943 0.0
-0.00000010 0.00024385 0.0
-0.00000028 0.00025644 0.0
-0.00000046 0.00025947 0.0
-0.00000064 0.00025505 0.0
-0.00000081 0.00024494 0.0
-0.00000096 0.00023051 0.0
-0.00000110 0.00021282 0.0
-0.00000122 0.00019261 0.0
-0.00000134 0.00017044 0.0
-0.00000143 0.00014673 0.0
-0.00000151 0.00012178 0.0
-0.00000157 0.00009588 0.0
-0.00000161 0.00006923 0.0
-0.00000164 0.00004206 0.0
-0.00000165 0.00001458 0.0
-0.00000164 -0.00001301 0.0
-0.00000161 -0.00004051 0.0
-0.00000157 -0.00006771 0.0
-0.00000151 -0.00009440 0.0
-0.00000143 -0.00012037 0.0
-0.00000134 -0.00014538 0.0
-0.00000123 -0.00016917 0.0
-0.00000110 -0.00019141 0.0
-0.00000096 -0.00021169 0.0
-0.00000081 -0.00022946 0.0
-0.00000064 -0.00024394 0.0
-0.00000047 -0.00025409 0.0
-0.00000028 -0.00025852 0.0
-0.00000010 -0.00025548 0.0
0.00000008 -0.00024286 0.0
0.00000023 -0.00021838 0.0
0.00000034 -0.00018012 0.0
0.00000037 -0.00012783 0.0
0.00000035 -0.00006595 0.0
0.00000000 -0.00004524 0.0
0.00005224 0.00004487 0.0
-0.00013369 0.00028277 0.0
-0.00051280 0.00053846 0.0
-0.00105711 0.00075651 0.0
-0.00172549 0.00091920 0.0
-0.00247609 0.00102600 0.0
-0.00327165 0.00108335 0.0
-0.00408121 0.00109983 0.0
-0.00488018 0.00108388 0.0
-0.00564950 0.00104285 0.0
-0.00637468 0.00098267 0.0
-0.00704471 0.00090791 0.0
-0.00765122 0.00082198 0.0
-0.00818778 0.00072741 0.0
-0.00864937 0.00062606 0.0
-0.00903209 0.00051939 0.0
-0.00933292 0.00040857 0.0
-0.00954956 0.00029462 0.0
-0.00968044 0.00017845 0.0
-0.00972458 0.00006096 0.0
-0.00968166 -0.00005699 0.0
-0.00955195 -0.00017454 0.0
-0.00933637 -0.00029084 0.0
-0.00903648 -0.00040498 0.0
-0.00865452 -0.00051604 0.0
-0.00819347 -0.00062299 0.0
-0.00765725 -0.00072463 0.0
-0.00705083 -0.00081952 0.0
-0.00638068 -0.00090574 0.0
-0.00565518 -0.00098077 0.0
-0.00488538 -0.00104118 0.0
-0.00408582 -0.00108236 0.0
-0.00327562 -0.00109837 0.0
-0.00247944 -0.00108186 0.0
-0.00172832 -0.00102438 0.0
-0.00105958 -0.00091736 0.0
-0.00051513 -0.00075436 0.0
-0.00013609 -0.00053597 0.0
0.00004970 -0.00028010 0.0
0.00000000 -0.00015496 0.0
-0.00005277 0.00015436 0.0
-0.00047431 0.00070429 0.0
-0.00120570 0.00126984 0.0
-0.00220149 0.00175229 0.0
-0.00339902 0.00211672 0.0
-0.00473304 0.00236002 0.0
-0.00614350 0.00249380 0.0
-0.00757888 0.00253520 0.0
-0.00899705 0.00250205 0.0
-0.01036459 0.00241038 0.0
-0.01165550 0.00227357 0.0
-0.01284974 0.00210213 0.0
-0.01393184 0.00190408 0.0
-0.01488987 0.00168543 0.0
-0.01571450 0.00145069 0.0
-0.01639849 0.00120337 0.0
-0.01693623 0.00094631 0.0
-0.01732353 0.00068192 0.0
-0.01755748 0.00041240 0.0
-0.01763632 0.00013981 0.0
-0.01755946 -0.00013385 0.0
-0.01732741 -0.00040659 0.0
-0.01694185 -0.00067640 0.0
-0.01640563 -0.00094120 0.0
-0.01572288 -0.00119879 0.0
-0.01489915 -0.00144671 0.0
-0.01394167 -0.00168211 0.0
-0.01285975 -0.00190144 0.0
-0.01166534 -0.00210014 0.0
-0.01037394 -0.00227217 0.0
-0.00900564 -0.00240946 0.0
-0.00758654 -0.00250146 0.0
-0.00615014 -0.00253476 0.0
-0.00473868 -0.00249331 0.0
-0.00340376 -0.00235929 0.0
-0.00220553 -0.00211558 0.0
-0.00120925 -0.00175063 0.0
-0.00047751 -0.00126770 0.0
-0.00005560 -0.00070201 0.0
0.00000000 -0.00038360 0.0
-0.00017318 0.00038306 0.0
-0.00083716 0.00136826 0.0
-0.00189349 0.00232616 0.0
-0.00327621 0.00313499 0.0
-0.00490728 0.00374778 0.0
-0.00670711 0.00415984 0.0
-0.00860169 0.00438836 0.0
-0.01052643 0.00445993 0.0
-0.01242745 0.00440306 0.0
-0.01426121 0.00424413 0.0
-0.01599323 0.00400559 0.0
-0.01759655 0.00370545 0.0
-0.01905017 0.00335769 0.0
-0.02033769 0.00297295 0.0
-0.02144632 0.00255932 0.0
-0.02236608 0.00212312 0.0
-0.02308927 0.00166950 0.0
-0.02361017 0.00120282 0.0
-0.02392479 0.00072702 0.0
-0.02403075 0.00024577 0.0
-0.02392724 -0.00023736 0.0
-0.02361498 -0.00071885 0.0
-0.02309624 -0.00119513 0.0
-0.02237494 -0.00166250 0.0
-0.02145672 -0.00211700 0.0
-0.02034922 -0.00255421 0.0
-0.01906238 -0.00296894 0.0
-0.01760900 -0.00335481 0.0
-0.01600547 -0.00370366 0.0
-0.01427285 -0.00400478 0.0
-0.01243818 -0.00424413 0.0
-0.01053600 -0.00440362 0.0
-0.00860999 -0.00446077 0.0
-0.00671413 -0.00438916 0.0
-0.00491312 -0.00416029 0.0
-0.00328104 -0.00374765 0.0
-0.00189751 -0.00313415 0.0
-0.00084050 -0.00232469 0.0
-0.00017592 -0.00136658 0.0
0.00000000 -0.00071215 0.0
-0.00027431 0.00071180 0.0
-0.00115491 0.00224885 0.0
-0.00249830 0.00366955 0.0
-0.00421345 0.00485013 0.0
-0.00620686 0.00574119 0.0
-0.00838755 0.00634052 0.0
-0.01067184 0.00667264 0.0
-0.01298644 0.00677453 0.0
-0.01526963 0.00668624 0.0
-0.01747094 0.00644543 0.0
-0.01954993 0.00608457 0.0
-0.02147461 0.00563013 0.0
-0.02321985 0.00510293 0.0
-0.02476590 0.00451899 0.0
-0.02609728 0.00389069 0.0
-0.02720191 0.00322775 0.0
-0.02807048 0.00253807 0.0
-0.02869609 0.00182842 0.0
-0.02907391 0.00110484 0.0
-0.02920111 0.00037297 0.0
-0.02907670 -0.00036177 0.0
-0.02870154 -0.00109401 0.0
-0.02807839 -0.00181828 0.0
-0.02721195 -0.00252894 0.0
-0.02610906 -0.00321988 0.0
-0.02477896 -0.00388430 0.0
-0.02323369 -0.00451420 0.0
-0.02148871 -0.00509979 0.0
-0.01956379 -0.00562858 0.0
-0.01748411 -0.00608445 0.0
-0.01528174 -0.00644649 0.0
-0.01299722 -0.00668814 0.0
-0.01068114 -0.00677684 0.0
-0.00839535 -0.00667494 0.0
-0.00621323 -0.00634239 0.0
-0.00421857 -0.00574231 0.0
-0.00250239 -0.00485032 0.0
-0.00115815 -0.00366891 0.0
-0.00027692 -0.00224780 0.0
0.00000000 -0.00111803 0.0
-0.00035241 0.00111796 0.0
-0.00141393 0.00331036 0.0
-0.00300277 0.00525837 0.0
-0.00500242 0.00684976 0.0
-0.00730309 0.00804185 0.0
-0.00980274 0.00884016 0.0
-0.01240947 0.00927936 0.0
-0.01504334 0.00940839 0.0
-0.01763698 0.00927988 0.0
-0.02013504 0.00894349 0.0
-0.02249288 0.00844241 0.0
-0.02467497 0.00781221 0.0
-0.02665318 0.00708113 0.0
-0.02840534 0.00627115 0.0
-0.02991403 0.00539938 0.0
-0.03116562 0.00447934 0.0
-0.03214967 0.00352211 0.0
-0.03285837 0.00253713 0.0
-0.03328635 0.00153281 0.0
-0.03343039 0.00051701 0.0
-0.03328942 -0.00050275 0.0
-0.03286439 -0.00151903 0.0
-0.03215839 -0.00252428 0.0
-0.03117670 -0.00351062 0.0
-0.02992702 -0.00446956 0.0
-0.02841973 -0.00539158 0.0
-0.02666842 -0.00626552 0.0
-0.02469048 -0.00707772 0.0
-0.02250811 -0.00781095 0.0
-0.02014947 -0.00844308 0.0
-0.01765020 -0.00894576 0.0
-0.01505504 -0.00928329 0.0
-0.01241947 -0.00941240 0.0
-0.00981101 -0.00928339 0.0
-0.00730971 -0.00884368 0.0
-0.00500759 -0.00804442 0.0
-0.00300676 -0.00685114 0.0
-0.00141703 -0.00525863 0.0
-0.00035493 -0.00330989 0.0
0.00000000 -0.00158321 0.0
-0.00041190 0.00158346 0.0
-0.00162187 0.00452031 0.0
-0.00341893 0.00705543 0.0
-0.00566375 0.00909457 0.0
-0.00823030 0.01060838 0.0
-0.01100517 0.01161502 0.0
-0.01388840 0.01216257 0.0
-0.01679401 0.01231399 0.0
-0.01964993 0.01213579 0.0
-0.02239698 0.01169053 0.0
-0.02498741 0.01103283 0.0
-0.02738308 0.01020787 0.0
-0.02955377 0.00925181 0.0
-0.03147560 0.00819298 0.0
-0.03312981 0.00705358 0.0
-0.03450173 0.00585126 0.0
-0.03558013 0.00460050 0.0
-0.03635665 0.00331365 0.0
-0.03682553 0.00200169 0.0
-0.03698335 0.00067483 0.0
-0.03682893 -0.00065717 0.0
-0.03636332 -0.00198465 0.0
-0.03558979 -0.00329781 0.0
-0.03451400 -0.00458641 0.0
-0.03314419 -0.00583937 0.0
-0.03149153 -0.00704424 0.0
-0.02957061 -0.00818643 0.0
-0.02740020 -0.00924812 0.0
-0.02500418 -0.01020696 0.0
-0.02241283 -0.01103442 0.0
-0.01966437 -0.01169421 0.0
-0.01680670 -0.01214095 0.0
-0.01389913 -0.01231996 0.0
-0.01101390 -0.01216861 0.0
-0.00823714 -0.01162043 0.0
-0.00566895 -0.01061260 0.0
-0.00342282 -0.00909726 0.0
-0.00162483 -0.00705661 0.0
-0.00041435 -0.00452036 0.0
0.00000000 -0.00209556 0.0
-0.00045860 0.00209614 0.0
-0.00179305 0.00585475 0.0
-0.00377050 0.00903286 0.0
-0.00623213 0.01155620 0.0
-0.00903646 0.01341270 0.0
-0.01205854 0.01463709 0.0
-0.01518994 0.01529396 0.0
-0.01833855 0.01546259 0.0
-0.02142773 0.01522496 0.0
-0.02439488 0.01465767 0.0
-0.02718959 0.01382754 0.0
-0.02977173 0.01279001 0.0
-0.03210952 0.01158959 0.0
-0.03417791 0.01026137 0.0
-0.03595727 0.00883292 0.0
-0.03743229 0.00732628 0.0
-0.03859130 0.00575951 0.0
-0.03942565 0.00414800 0.0
-0.03992939 0.00250543 0.0
-0.04009898 0.00084443 0.0
-0.03993323 -0.00082292 0.0
-0.03943318 -0.00248469 0.0
-0.03860221 -0.00412878 0.0
-0.03744614 -0.00574247 0.0
-0.03597350 -0.00731201 0.0
-0.03419588 -0.00882186 0.0
-0.03212851 -0.01025379 0.0
-0.02979101 -0.01158562 0.0
-0.02720844 -0.01278953 0.0
-0.02441263 -0.01383022 0.0
-0.02144384 -0.01466298 0.0
-0.01835261 -0.01523218 0.0
-0.01520170 -0.01547086 0.0
-0.01206796 -0.01530234 0.0
-0.00904369 -0.01464469 0.0
-0.00623746 -0.01341881 0.0
-0.00377435 -0.01156036 0.0
-0.00179593 -0.00903502 0.0
-0.00046099 -0.00585529 0.0
0.00000000 -0.00264825 0.0
-0.00049779 0.00264919 0.0
-0.00194244 0.00729938 0.0
-0.00408359 0.01117400 0.0
-0.00674575 0.01421834 0.0
-0.00977283 0.01643976 0.0
-0.01302816 0.01789241 0.0
-0.01639439 0.01866018 0.0
-0.01977277 0.01884096 0.0
-0.02308179 0.01853397 0.0
-0.02625536 0.01783123 0.0
-0.02924058 0.01681274 0.0
-0.03199553 0.01554495 0.0
-0.03448723 0.01408128 0.0
-0.03668981 0.01246395 0.0
-0.03858314 0.01072625 0.0
-0.04015163 0.00889477 0.0
-0.04138345 0.00699133 0.0
-0.04226991 0.00503445 0.0
-0.04280502 0.00304054 0.0
-0.04298528 0.00102468 0.0
-0.04280946 -0.00099874 0.0
-0.04227861 -0.00301555 0.0
-0.04139606 -0.00501132 0.0
-0.04016764 -0.00697089 0.0
-0.03860191 -0.00887773 0.0
-0.03671059 -0.01071317 0.0
-0.03450918 -0.01245520 0.0
-0.03201780 -0.01407699 0.0
-0.02926233 -0.01554500 0.0
-0.02627581 -0.01681673 0.0
-0.02310028 -0.01783850 0.0
-0.01978881 -0.01854364 0.0
-0.01640771 -0.01885195 0.0
-0.01303869 -0.01867134 0.0
-0.00978075 -0.01790263 0.0
-0.00675144 -0.01644811 0.0
-0.00408757 -0.01422422 0.0
-0.00194532 -0.01117725 0.0
-0.00050017 -0.00730042 0.0
0.00000000 -0.00323882 0.0
-0.00053381 0.00324012 0.0
-0.00208332 0.00884887 0.0
-0.00438250 0.01347316 0.0
-0.00724072 0.01707655 0.0
-0.01048778 0.01968681 0.0
-0.01397505 0.02137966 0.0
-0.01757558 0.02226071 0.0
-0.02118333 0.02244869 0.0
-0.02471142 0.02206205 0.0
-0.02808991 0.02120971 0.0
-0.03126329 0.01998611 0.0
-0.03418793 0.01846959 0.0
-0.03682982 0.01672316 0.0
-0.03916256 0.01479668 0.0
-0.04116579 0.01272947 0.0
-0.04282394 0.01055292 0.0
-0.04412532 0.00829270 0.0
-0.04506141 0.00597053 0.0
-0.04562639 0.00360552 0.0
-0.04581686 0.00121515 0.0
-0.04563163 -0.00118397 0.0
-0.04507167 -0.00357550 0.0
-0.04414021 -0.00594278 0.0
-0.04284286 -0.00826823 0.0
-0.04118797 -0.01053262 0.0
-0.03918712 -0.01271402 0.0
-0.03685579 -0.01478653 0.0
-0.03421428 -0.01671849 0.0
-0.03128901 -0.01847026 0.0
-0.02811408 -0.01999165 0.0
-0.02473324 -0.02121933 0.0
-0.02120221 -0.02207465 0.0
-0.01759117 -0.02246298 0.0
-0.01398727 -0.02227524 0.0
-0.01049684 -0.02139305 0.0
-0.00724707 -0.01969787 0.0
-0.00438679 -0.01708448 0.0
-0.00208630 -0.01347773 0.0
-0.00053619 -0.00885052 0.0
0.00000000 -0.00386817 0.0
-0.00057000 0.00386985 0.0
-0.00222668 0.01050554 0.0
-0.00468805 0.01593452 0.0
-0.00774868 0.02013716 0.0
-0.01122409 0.02316221 0.0
-0.01495308 0.02510864 0.0
-0.01879834 0.02610596 0.0
-0.02264569 0.02629603 0.0
-0.02640220 0.02581854 0.0
-0.02999365 0.02480115 0.0
-0.03336165 0.02335411 0.0
-0.03646085 0.02156878 0.0
-0.03925630 0.01951860 0.0
-0.04172129 0.01726166 0.0
-0.04383552 0.01484370 0.0
-0.04558375 0.01230115 0.0
-0.04695469 0.00966364 0.0
-0.04794025 0.00695609 0.0
-0.04853498 0.00420025 0.0
-0.04873569 0.00141586 0.0
-0.04854125 -0.00137840 0.0
-0.04795255 -0.00416420 0.0
-0.04697254 -0.00692279 0.0
-0.04560644 -0.00963433 0.0
-0.04386216 -0.01227689 0.0
-0.04175082 -0.01482535 0.0
-0.03928756 -0.01724978 0.0
-0.03649260 -0.01951343 0.0
-0.03339268 -0.02157017 0.0
-0.03002281 -0.02336151 0.0
-0.02642853 -0.02481360 0.0
-0.02266846 -0.02583472 0.0
-0.01881710 -0.02631432 0.0
-0.01496771 -0.02612461 0.0
-0.01123483 -0.02512592 0.0
-0.00775607 -0.02317661 0.0
-0.00469289 -0.02014765 0.0
-0.00222988 -0.01594073 0.0
-0.00057243 -0.01050795 0.0
0.00000000 -0.00453980 0.0
-0.00060893 0.00454188 0.0
-0.00238137 0.01227796 0.0
-0.00501755 0.01857068 0.0
-0.00829644 0.02341604 0.0
-0.01201840 0.02688416 0.0
-0.01600861 0.02909884 0.0
-0.02011832 0.03021566 0.0
-0.02422425 0.03040195 0.0
-0.02822665 0.02982093 0.0
-0.03204646 0.02862094 0.0
-0.03562215 0.02692980 0.0
-0.03890655 0.02485317 0.0
-0.04186391 0.02247596 0.0
-0.04446743 0.01986518 0.0
-0.04669723 0.01707349 0.0
-0.04853870 0.01414261 0.0
-0.04998130 0.01110624 0.0
-0.05101767 0.00799245 0.0
-0.05164290 0.00482548 0.0
-0.05185418 0.00162714 0.0
-0.05165049 -0.00158209 0.0
-0.05103256 -0.00478212 0.0
-0.05000293 -0.00795242 0.0
-0.04856621 -0.01107104 0.0
-0.04672957 -0.01411353 0.0
-0.04450333 -0.01705158 0.0
-0.04190195 -0.01985115 0.0
-0.03894526 -0.02247012 0.0
-0.03566004 -0.02485538 0.0
-0.03208214 -0.02693940 0.0
-0.02825891 -0.02863681 0.0
-0.02425217 -0.02984145 0.0
-0.02014132 -0.03042516 0.0
-0.01602652 -0.03023940 0.0
-0.01203148 -0.02912095 0.0
-0.00830533 -0.02690274 0.0
-0.00502320 -0.02342976 0.0
-0.00238490 -0.01857901 0.0
-0.00061144 -0.01228140 0.0
0.00000000 -0.00525924 0.0
-0.00065261 0.00526173 0.0
-0.00255457 0.01417991 0.0
-0.00538544 0.02140154 0.0
-0.00890680 0.02693738 0.0
-0.01290218 0.03087952 0.0
-0.01718161 0.03337826 0.0
-0.02158349 0.03461752 0.0
-0.02597427 0.03479271 0.0
-0.03024646 0.03409311 0.0
-0.03431562 0.03269009 0.0
-0.03811679 0.03073096 0.0
-0.04160096 0.02833733 0.0
-0.04473177 0.02560676 0.0
-0.04748267 0.02261607 0.0
-0.04983455 0.01942537 0.0
-0.05177390 0.01608195 0.0
-0.05329134 0.01262368 0.0
-0.05438054 0.00908165 0.0
-0.05503745 0.00548239 0.0
-0.05525978 0.00184947 0.0
-0.05504668 -0.00179519 0.0
-0.05439865 -0.00543015 0.0
-0.05331766 -0.00903341 0.0
-0.05180744 -0.01258125 0.0
-0.04987403 -0.01604694 0.0
-0.04752657 -0.01939904 0.0
-0.04477839 -0.02259932 0.0
-0.04164849 -0.02560001 0.0
-0.03816342 -0.02834044 0.0
-0.03435964 -0.03074318 0.0
-0.03028636 -0.03271008 0.0
-0.02600886 -0.03411893 0.0
-0.02161203 -0.03482198 0.0
-0.01720385 -0.03464757 0.0
-0.01291838 -0.03340640 0.0
-0.00891772 -0.03090339 0.0
-0.00539223 -0.02695523 0.0
-0.00255859 -0.02141264 0.0
-0.00065523 -0.01418474 0.0
0.00000000 -0.00603370 0.0
-0.00070268 0.00603664 0.0
-0.00275243 0.01622964 0.0
-0.00580435 0.02445345 0.0
-0.00959993 0.03073295 0.0
-0.01390352 0.03518309 0.0
-0.01850783 0.03798255 0.0
-0.02323662 0.03934630 0.0
-0.02794465 0.03950073 0.0
-0.03251572 0.03866417 0.0
-0.03685938 0.03703374 0.0
-0.04090702 0.03477859 0.0
-0.04460789 0.03203819 0.0
-0.04792532 0.02892419 0.0
-0.05083347 0.02552421 0.0
-0.05331458 0.02190647 0.0
-0.05535676 0.01812413 0.0
-0.05695232 0.01421922 0.0
-0.05809642 0.01022575 0.0
-0.05878619 0.00617216 0.0
-0.05902006 0.00208334 0.0
-0.05879743 -0.00201783 0.0
-0.05811849 -0.00610909 0.0
-0.05698442 -0.01016747 0.0
-0.05539772 -0.01416795 0.0
-0.05336287 -0.01808178 0.0
-0.05088728 -0.02187463 0.0
-0.04798259 -0.02550400 0.0
-0.04466644 -0.02891616 0.0
-0.04096463 -0.03204224 0.0
-0.03691392 -0.03479388 0.0
-0.03256531 -0.03705867 0.0
-0.02798778 -0.03869644 0.0
-0.02327230 -0.03953745 0.0
-0.01853568 -0.03938417 0.0
-0.01392380 -0.03801826 0.0
-0.00961354 -0.03521364 0.0
-0.00581265 -0.03075611 0.0
-0.00275711 -0.02446816 0.0
-0.00070546 -0.01623637 0.0
0.00000000 -0.00687198 0.0
-0.00076065 0.00687540 0.0
-0.00298073 0.01844970 0.0
-0.00628623 0.02775893 0.0
-0.01039511 0.03484180 0.0
-0.01504926 0.03983722 0.0
-0.02002137 0.04295464 0.0
-0.02511826 0.04444318 0.0
-0.03018133 0.04456379 0.0
-0.03508451 0.04356734 0.0
-0.03973078 0.04167998 0.0
-0.04404775 0.03909555 0.0
-0.04798318 0.03597361 0.0
-0.05150062 0.03244161 0.0
-0.05457560 0.02859919 0.0
-0.05719244 0.02452330 0.0
-0.05934165 0.02027333 0.0
-0.06101785 0.01589543 0.0
-0.06221830 0.01142619 0.0
-0.06294171 0.00689557 0.0
-0.06318751 0.00232914 0.0
-0.06295538 -0.00224995 0.0
-0.06224517 -0.00681930 0.0
-0.06105698 -0.01135566 0.0
-0.05939165 -0.01583328 0.0
-0.05725151 -0.02022191 0.0
-0.05464157 -0.02448456 0.0
-0.05157103 -0.02857453 0.0
-0.04805539 -0.03243180 0.0
-0.04411903 -0.03597859 0.0
-0.03979849 -0.03911440 0.0
-0.03514630 -0.04171085 0.0
-0.03023527 -0.04360746 0.0
-0.02516304 -0.04460966 0.0
-0.02005642 -0.04449078 0.0
-0.01507483 -0.04299983 0.0
-0.01041221 -0.03987624 0.0
-0.00629653 -0.03487177 0.0
-0.00298629 -0.02777838 0.0
-0.00076365 -0.01845898 0.0
0.00000000 -0.00778452 0.0
-0.00082810 0.00778845 0.0
-0.00324551 0.02086709 0.0
-0.00684364 0.03135705 0.0
-0.01131246 0.03931060 0.0
-0.01636738 0.04489212 0.0
-0.02175749 0.04834474 0.0
-0.02726993 0.04995560 0.0
-0.03273066 0.05002450 0.0
-0.03800254 0.04883920 0.0
-0.04298142 0.04665885 0.0
-0.04759121 0.04370533 0.0
-0.05177865 0.04016104 0.0
-0.05550829 0.03617125 0.0
-0.05875801 0.03184890 0.0
-0.06151523 0.02728051 0.0
-0.06377379 0.02253188 0.0
-0.06553155 0.01765318 0.0
-0.06678854 0.01268317 0.0
-0.06754558 0.00765261 0.0
-0.06780342 0.00258698 0.0
-0.06756218 -0.00249119 0.0
-0.06682118 -0.00756029 0.0
-0.06557915 -0.01259769 0.0
-0.06383473 -0.01757770 0.0
-0.06158739 -0.02246925 0.0
-0.05883882 -0.02723312 0.0
-0.05559481 -0.03181853 0.0
-0.05186767 -0.03615892 0.0
-0.04767942 -0.04016684 0.0
-0.04306556 -0.04372825 0.0
-0.03807964 -0.04669676 0.0
-0.03279825 -0.04888883 0.0
-0.02732628 -0.05008161 0.0
-0.02180177 -0.05001527 0.0
-0.01639976 -0.04840183 0.0
-0.01133410 -0.04494189 0.0
-0.00685654 -0.03934932 0.0
-0.00325222 -0.03138267 0.0
-0.00083140 -0.02087978 0.0
0.00000000 -0.00878365 0.0
-0.00090688 0.00878816 0.0
-0.00355376 0.02351394 0.0
-0.00749096 0.03529423 0.0
-0.01237491 0.04419453 0.0
-0.01788939 0.05040657 0.0
-0.02375549 0.05421083 0.0
-0.02973721 0.05593730 0.0
-0.03564275 0.05593002 0.0
-0.04132253 0.05451897 0.0
-0.04666486 0.05200117 0.0
-0.05159024 0.04863070 0.0
-0.05604525 0.04461604 0.0
-0.05999661 0.04012259 0.0
-0.06342587 0.03527815 0.0
-0.06632490 0.03017953 0.0
-0.06869215 0.02489913 0.0
-0.07052981 0.01949084 0.0
-0.07184157 0.01399493 0.0
-0.07263104 0.00844207 0.0
-0.07290066 0.00285660 0.0
-0.07265112 -0.00274073 0.0
-0.07188111 -0.00833030 0.0
-0.07058755 -0.01389124 0.0
-0.06876622 -0.01939903 0.0
-0.06641283 -0.02482263 0.0
-0.06352465 -0.03012129 0.0
-0.06010275 -0.03524043 0.0
-0.05615490 -0.04010676 0.0
-0.05169936 -0.04462237 0.0
-0.04676942 -0.04865817 0.0
-0.04141880 -0.05204737 0.0
-0.03572756 -0.05458005 0.0
-0.02980827 -0.05600089 0.0
-0.02381159 -0.05601193 0.0
-0.01793055 -0.05428285 0.0
-0.01240245 -0.05046997 0.0
-0.00750726 -0.04424449 0.0
-0.00356199 -0.03532791 0.0
-0.00091056 -0.02353120 0.0
0.00000000 -0.00988414 0.0
-0.00099929 0.00988928 0.0
-0.00391411 0.02642874 0.0
-0.00824577 0.03962588 0.0
-0.01361018 0.04955891 0.0
-0.01965292 0.05644930 0.0
-0.02606165 0.06061953 0.0
-0.03257299 0.06244863 0.0
-0.03897467 0.06233168 0.0
-0.04510330 0.06064759 0.0
-0.05083945 0.05773731 0.0
-0.05610092 0.05389215 0.0
-0.06083543 0.04935054 0.0
-0.06501357 0.04430072 0.0
-0.06862237 0.03888695 0.0
-0.07165991 0.03321706 0.0
-0.07413089 0.02737010 0.0
-0.07604319 0.02140313 0.0
-0.07740526 0.01535700 0.0
-0.07822428 0.00926109 0.0
-0.07850489 0.00313721 0.0
-0.07824848 -0.00299714 0.0
-0.07745296 -0.00912582 0.0
-0.07611296 -0.01523124 0.0
-0.07422061 -0.02129137 0.0
-0.07176674 -0.02727649 0.0
-0.06874281 -0.03314521 0.0
-0.06514351 -0.03883972 0.0
-0.06097029 -0.04427998 0.0
-0.05623578 -0.04935686 0.0
-0.05096936 -0.05392458 0.0
-0.04522357 -0.05779315 0.0
-0.03908123 -0.06072238 0.0
-0.03266278 -0.06241932 0.0
-0.02613290 -0.06254178 0.0
-0.01970546 -0.06071027 0.0
-0.01364540 -0.05653001 0.0
-0.00826654 -0.04962332 0.0
-0.00392435 -0.03967008 0.0
-0.00100347 -0.02645206 0.0
0.00000000 -0.01110390 0.0
-0.00110835 0.01110972 0.0
-0.00433770 0.02965806 0.0
-0.00913046 0.04441862 0.0
-0.01505303 0.05548146 0.0
-0.02170456 0.06310080 0.0
-0.02873230 0.06764725 0.0