# vtk DataFile Version 4.0
2D velocity field
ASCII
DATASET STRUCTURED_GRID
DIMENSIONS 40 40 1
POINTS 1600 float
0.00000000 0.00000000 1.0
1.00000000 0.00000000 1.0
2.00000000 0.00000000 1.0
3.00000000 0.00000000 1.0
4.00000000 0.00000000 1.0
5.00000000 0.00000000 1.0
6.00000000 0.00000000 1.0
7.00000000 0.00000000 1.0
8.00000000 0.00000000 1.0
9.00000000 0.00000000 1.0
10.00000000 0.00000000 1.0
11.00000000 0.00000000 1.0
12.00000000 0.00000000 1.0
13.00000000 0.00000000 1.0
14.00000000 0.00000000 1.0
15.00000000 0.00000000 1.0
16.00000000 0.00000000 1.0
17.00000000 0.00000000 1.0
18.00000000 0.00000000 1.0
19.00000000 0.00000000 1.0
20.00000000 0.00000000 1.0
21.00000000 0.00000000 1.0
22.00000000 0.00000000 1.0
23.00000000 0.00000000 1.0
24.00000000 0.00000000 1.0
25.00000000 0.00000000 1.0
26.00000000 0.00000000 1.0
27.00000000 0.00000000 1.0
28.00000000 0.00000000 1.0
29.00000000 0.00000000 1.0
30.00000000 0.00000000 1.0
31.00000000 0.00000000 1.0
32.00000000 0.00000000 1.0
33.00000000 0.00000000 1.0
34.00000000 0.00000000 1.0
35.00000000 0.00000000 1.0
36.00000000 0.00000000 1.0
37.00000000 0.00000000 1.0
38.00000000 0.00000000 1.0
39.00000000 0.00000000 1.0
0.00000000 1.00000000 1.0
1.00000000 1.00000000 1.0
2.00000000 1.00000000 1.0
3.00000000 1.00000000 1.0
4.00000000 1.00000000 1.0
5.00000000 1.00000000 1.0
6.00000000 1.00000000 1.0
7.00000000 1.00000000 1.0
8.00000000 1.00000000 1.0
9.00000000 1.00000000 1.0
10.00000000 1.00000000 1.0
11.00000000 1.00000000 1.0
12.00000000 1.00000000 1.0
13.00000000 1.00000000 1.0
14.00000000 1.00000000 1.0
15.00000000 1.00000000 1.0
16.00000000 1.00000000 1.0
17.00000000 1.00000000 1.0
18.00000000 1.00000000 1.0
19.00000000 1.00000000 1.0
20.00000000 1.00000000 1.0
21.00000000 1.00000000 1.0
22.00000000 1.00000000 1.0
23.00000000 1.00000000 1.0
24.00000000 1.00000000 1.0
25.00000000 1.00000000 1.0
26.00000000 1.00000000 1.0
27.00000000 1.00000000 1.0
28.00000000 1.00000000 1.0
29.00000000 1.00000000 1.0
30.00000000 1.00000000 1.0
31.00000000 1.00000000 1.0
32.00000000 1.00000000 1.0
33.00000000 1.00000000 1.0
34.00000000 1.00000000 1.0
35.00000000 1.00000000 1.0
36.00000000 1.00000000 1.0
37.00000000 1.00000000 1.0
38.00000000 1.00000000 1.0
39.00000000 1.00000000 1.0
0.00000000 2.00000000 1.0
1.00000000 2.00000000 1.0
2.00000000 2.00000000 1.0
3.00000000 2.00000000 1.0
4.00000000 2.00000000 1.0
5.00000000 2.00000000 1.0
6.00000000 2.00000000 1.0
7.00000000 2.00000000 1.0
8.00000000 2.00000000 1.0
9.00000000 2.00000000 1.0
10.00000000 2.00000000 1.0
11.00000000 2.00000000 1.0
12.00000000 2.00000000 1.0
13.00000000 2.00000000 1.0
14.00000000 2.00000000 1.0
15.00000000 2.00000000 1.0
16.00000000 2.00000000 1.0
17.00000000 2.00000000 1.0
18.00000000 2.00000000 1.0
19.00000000 2.00000000 1.0
20.00000000 2.00000000 1.0
21.00000000 2.00000000 1.0
22.00000000 2.00000000 1.0
23.00000000 2.00000000 1.0
24.00000000 2.00000000 1.0
25.00000000 2.00000000 1.0
26.00000000 2.00000000 1.0
27.00000000 2.00000000 1.0
28.00000000 2.00000000 1.0
29.00000000 2.00000000 1.0
30.00000000 2.00000000 1.0
31.00000000 2.00000000 1.0
32.00000000 2.00000000 1.0
33.00000000 2.00000000 1.0
34.00000000 2.00000000 1.0
35.00000000 2.00000000 1.0
36.00000000 2.00000000 1.0
37.00000000 2.00000000 1.0
38.00000000 2.00000000 1.0
39.00000000 2.00000000 1.0
0.00000000 3.00000000 1.0
1.00000000 3.00000000 1.0
2.00000000 3.00000000 1.0
3.00000000 3.00000000 1.0
4.00000000 3.00000000 1.0
5.00000000 3.00000000 1.0
6.00000000 3.00000000 1.0
7.00000000 3.00000000 1.0
8.00000000 3.00000000 1.0
9.00000000 3.00000000 1.0
10.00000000 3.00000000 1.0
11.00000000 3.00000000 1.0
12.00000000 3.00000000 1.0
13.00000000 3.00000000 1.0
14.00000000 3.00000000 1.0
15.00000000 3.00000000 1.0
16.00000000 3.00000000 1.0
17.00000000 3.00000000 1.0
18.00000000 3.00000000 1.0
19.00000000 3.00000000 1.0
20.00000000 3.00000000 1.0
21.00000000 3.00000000 1.0
22.00000000 3.00000000 1.0
23.00000000 3.00000000 1.0
24.00000000 3.00000000 1.0
25.00000000 3.00000000 1.0
26.00000000 3.00000000 1.0
27.00000000 3.00000000 1.0
28.00000000 3.00000000 1.0
29.00000000 3.00000000 1.0
30.00000000 3.00000000 1.0
31.00000000 3.00000000 1.0
32.00000000 3.00000000 1.0
33.00000000 3.00000000 1.0
34.00000000 3.00000000 1.0
35.00000000 3.00000000 1.0
36.00000000 3.00000000 1.0
37.00000000 3.00000000 1.0
38.00000000 3.00000000 1.0
39.00000000 3.00000000 1.0
0.00000000 4.00000000 1.0
1.00000000 4.00000000 1.0
2.00000000 4.00000000 1.0
3.00000000 4.00000000 1.0
4.00000000 4.00000000 1.0
5.00000000 4.00000000 1.0
6.00000000 4.00000000 1.0
7.00000000 4.00000000 1.0
8.00000000 4.00000000 1.0
9.00000000 4.00000000 1.0
10.00000000 4.00000000 1.0
11.00000000 4.00000000 1.0
12.00000000 4.00000000 1.0
13.00000000 4.00000000 1.0
14.00000000 4.00000000 1.0
15.00000000 4.00000000 1.0
16.00000000 4.00000000 1.0
17.00000000 4.00000000 1.0
18.00000000 4.00000000 1.0
19.00000000 4.00000000 1.0
20.00000000 4.00000000 1.0
21.00000000 4.00000000 1.0
22.00000000 4.00000000 1.0
23.00000000 4.00000000 1.0
24.00000000 4.00000000 1.0
25.00000000 4.00000000 1.0
26.00000000 4.00000000 1.0
27.00000000 4.00000000 1.0
28.00000000 4.00000000 1.0
29.00000000 4.00000000 1.0
30.00000000 4.00000000 1.0
31.00000000 4.00000000 1.0
32.00000000 4.00000000 1.0
33.00000000 4.00000000 1.0
34.00000000 4.00000000 1.0
35.00000000 4.00000000 1.0
36.00000000 4.00000000 1.0
37.00000000 4.00000000 1.0
38.00000000 4.00000000 1.0
39.00000000 4.00000000 1.0
0.00000000 5.00000000 1.0
1.00000000 5.00000000 1.0
2.00000000 5.00000000 1.0
3.00000000 5.00000000 1.0
4.00000000 5.00000000 1.0
5.00000000 5.00000000 1.0
6.00000000 5.00000000 1.0
7.00000000 5.00000000 1.0
8.00000000 5.00000000 1.0
9.00000000 5.00000000 1.0
10.00000000 5.00000000 1.0
11.00000000 5.00000000 1.0
12.00000000 5.00000000 1.0
13.00000000 5.00000000 1.0
14.00000000 5.00000000 1.0
15.00000000 5.00000000 1.0
16.00000000 5.00000000 1.0
17.00000000 5.00000000 1.0
18.00000000 5.00000000 1.0
19.00000000 5.00000000 1.0
20.00000000 5.00000000 1.0
21.00000000 5.00000000 1.0
22.00000000 5.00000000 1.0
23.00000000 5.00000000 1.0
24.00000000 5.00000000 1.0
25.00000000 5.00000000 1.0
26.00000000 5.00000000 1.0
27.00000000 5.00000000 1.0
28.00000000 5.00000000 1.0
29.00000000 5.00000000 1.0
30.00000000 5.00000000 1.0
31.00000000 5.00000000 1.0
32.00000000 5.00000000 1.0
33.00000000 5.00000000 1.0
34.00000000 5.00000000 1.0
35.00000000 5.00000000 1.0
36.00000000 5.00000000 1.0
37.00000000 5.00000000 1.0
38.00000000 5.00000000 1.0
39.00000000 5.00000000 1.0
0.00000000 6.00000000 1.0
1.00000000 6.00000000 1.0
2.00000000 6.00000000 1.0
3.00000000 6.00000000 1.0
4.00000000 6.00000000 1.0
5.00000000 6.00000000 1.0
6.00000000 6.00000000 1.0
7.00000000 6.00000000 1.0
8.00000000 6.00000000 1.0
9.00000000 6.00000000 1.0
10.00000000 6.00000000 1.0
11.00000000 6.00000000 1.0
12.00000000 6.00000000 1.0
13.00000000 6.00000000 1.0
14.00000000 6.00000000 1.0
15.00000000 6.00000000 1.0
16.00000000 6.00000000 1.0
17.00000000 6.00000000 1.0
18.00000000 6.00000000 1.0
19.00000000 6.00000000 1.0
20.00000000 6.00000000 1.0
21.00000000 6.00000000 1.0
22.00000000 6.00000000 1.0
23.00000000 6.00000000 1.0
24.00000000 6.00000000 1.0
25.00000000 6.00000000 1.0
26.00000000 6.00000000 1.0
27.00000000 6.00000000 1.0
28.00000000 6.00000000 1.0
29.00000000 6.00000000 1.0
30.00000000 6.00000000 1.0
31.00000000 6.00000000 1.0
32.00000000 6.00000000 1.0
33.00000000 6.00000000 1.0
34.00000000 6.00000000 1.0
35.00000000 6.00000000 1.0
36.00000000 6.00000000 1.0
37.00000000 6.00000000 1.0
38.00000000 6.00000000 1.0
39.00000000 6.00000000 1.0
0.00000000 7.00000000 1.0
1.00000000 7.00000000 1.0
2.00000000 7.00000000 1.0
3.00000000 7.00000000 1.0
4.00000000 7.00000000 1.0
5.00000000 7.00000000 1.0
6.00000000 7.00000000 1.0
7.00000000 7.00000000 1.0
8.00000000 7.00000000 1.0
9.00000000 7.00000000 1.0
10.00000000 7.00000000 1.0
11.00000000 7.00000000 1.0
12.00000000 7.00000000 1.0
13.00000000 7.00000000 1.0
14.00000000 7.00000000 1.0
15.00000000 7.00000000 1.0
16.00000000 7.00000000 1.0
17.00000000 7.00000000 1.0
18.00000000 7.00000000 1.0
19.00000000 7.00000000 1.0
20.00000000 7.00000000 1.0
21.00000000 7.00000000 1.0
22.00000000 7.00000000 1.0
23.00000000 7.00000000 1.0
24.00000000 7.00000000 1.0
25.00000000 7.00000000 1.0
26.00000000 7.00000000 1.0
27.00000000 7.00000000 1.0
28.00000000 7.00000000 1.0
29.00000000 7.00000000 1.0
30.00000000 7.00000000 1.0
31.00000000 7.00000000 1.0
32.00000000 7.00000000 1.0
33.00000000 7.00000000 1.0
34.00000000 7.00000000 1.0
35.00000000 7.00000000 1.0
36.00000000 7.00000000 1.0
37.00000000 7.00000000 1.0
38.00000000 7.00000000 1.0
39.00000000 7.00000000 1.0
0.00000000 8.00000000 1.0
1.00000000 8.00000000 1.0
2.00000000 8.00000000 1.0
3.00000000 8.00000000 1.0
4.00000000 8.00000000 1.0
5.00000000 8.00000000 1.0
6.00000000 8.00000000 1.0
7.00000000 8.00000000 1.0
8.00000000 8.00000000 1.0
9.00000000 8.00000000 1.0
10.00000000 8.00000000 1.0
11.00000000 8.00000000 1.0
12.00000000 8.00000000 1.0
13.00000000 8.00000000 1.0
14.00000000 8.00000000 1.0
15.00000000 8.00000000 1.0
16.00000000 8.00000000 1.0
17.00000000 8.00000000 1.0
18.00000000 8.00000000 1.0
19.00000000 8.00000000 1.0
20.00000000 8.00000000 1.0
21.00000000 8.00000000 1.0
22.00000000 8.00000000 1.0
23.00000000 8.00000000 1.0
24.00000000 8.00000000 1.0
25.00000000 8.00000000 1.0
26.00000000 8.00000000 1.0
27.00000000 8.00000000 1.0
28.00000000 8.00000000 1.0
29.00000000 8.00000000 1.0
30.00000000 8.00000000 1.0
31.00000000 8.00000000 1.0
32.00000000 8.00000000 1.0
33.00000000 8.00000000 1.0
34.00000000 8.00000000 1.0
35.00000000 8.00000000 1.0
36.00000000 8.00000000 1.0
37.00000000 8.00000000 1.0
38.00000000 8.00000000 1.0
39.00000000 8.00000000 1.0
0.00000000 9.00000000 1.0
1.00000000 9.00000000 1.0
2.00000000 9.00000000 1.0
3.00000000 9.00000000 1.0
4.00000000 9.00000000 1.0
5.00000000 9.00000000 1.0
6.00000000 9.00000000 1.0
7.00000000 9.00000000 1.0
8.00000000 9.00000000 1.0
[...]
POINT_DATA 1600
VECTORS velocity double
0.00000000 0.00000816 0.0
0.00000028 -0.00000825 0.0
0.00000039 0.00002698 0.0
0.00000045 0.00008295 0.0
0.00000042 0.00014021 0.0
0.00000033 0.00019014 0.0
0.00000020 0.00022967 0.0
0.00000005 0.00025823 0.0
-0.00000012 0.00027626 0.0
-0.00000030 0.00028466 0.0
-0.00000047 0.00028448 0.0
-0.00000064 0.00027681 0.0
-0.00000080 0.00026269 0.0
-0.00000094 0.00024313 0.0
-0.00000107 0.00021903 0.0
-0.00000118 0.00019121 0.0
-0.00000127 0.00016041 0.0
-0.00000134 0.00012728 0.0
-0.00000139 0.00009241 0.0
-0.00000142 0.00005633 0.0
-0.00000143 0.00001954 0.0
-0.00000142 -0.00001750 0.0
-0.00000139 -0.00005434 0.0
-0.00000134 -0.00009049 0.0
-0.00000127 -0.00012547 0.0
-0.00000118 -0.00015873 0.0
-0.00000107 -0.00018968 0.0
-0.00000094 -0.00021765 0.0
-0.00000080 -0.00024189 0.0
-0.00000064 -0.00026156 0.0
-0.00000047 -0.00027575 0.0
-0.00000030 -0.00028346 0.0
-0.00000012 -0.00028363 0.0
0.00000005 -0.00027517 0.0
0.00000020 -0.00025704 0.0
0.00000033 -0.00022836 0.0
0.00000042 -0.00018868 0.0
0.00000045 -0.00013859 0.0
0.00000039 -0.00008119 0.0
0.00000027 -0.00002515 0.0
0.00000000 0.00001977 0.0
0.00007114 -0.00002019 0.0
-0.00002562 0.00014408 0.0
-0.00030311 0.00038158 0.0
-0.00076398 0.00062311 0.0
-0.00138715 0.00083617 0.0
-0.00214138 0.00100743 0.0
-0.00299223 0.00113300 0.0
-0.00390564 0.00121369 0.0
-0.00484976 0.00125254 0.0
-0.00579574 0.00125363 0.0
-0.00671814 0.00122144 0.0
-0.00759494 0.00116044 0.0
-0.00840742 0.00107497 0.0
-0.00913993 0.00096902 0.0
-0.00977964 0.00084627 0.0
-0.01031625 0.00071002 0.0
-0.01074175 0.00056323 0.0
-0.01105011 0.00040856 0.0
-0.01123719 0.00024841 0.0
-0.01130051 0.00008501 0.0
-0.01123921 -0.00007952 0.0
-0.01105403 -0.00024309 0.0
-0.01074730 -0.00040357 0.0
-0.01032310 -0.00055871 0.0
-0.00978734 -0.00070607 0.0
-0.00914802 -0.00084293 0.0
-0.00841544 -0.00096630 0.0
-0.00760247 -0.00107282 0.0
-0.00672481 -0.00115876 0.0
-0.00580131 -0.00122008 0.0
-0.00485412 -0.00125243 0.0
-0.00390882 -0.00125129 0.0
-0.00299439 -0.00121222 0.0
-0.00214282 -0.00113115 0.0
-0.00138824 -0.00100507 0.0
-0.00076513 -0.00083326 0.0
-0.00030471 -0.00061965 0.0
-0.00002792 -0.00037772 0.0
0.00006819 -0.00014022 0.0
0.00000000 -0.00002880 0.0
-0.00000968 0.00002803 0.0
-0.00030942 0.00044381 0.0
-0.00091298 0.00098514 0.0
-0.00181811 0.00152824 0.0
-0.00299188 0.00200994 0.0
-0.00438533 0.00240087 0.0
-0.00594271 0.00269038 0.0
-0.00760722 0.00287820 0.0
-0.00932437 0.00296969 0.0
-0.01104390 0.00297316 0.0
-0.01272075 0.00289828 0.0
-0.01431542 0.00275512 0.0
-0.01579401 0.00255356 0.0
-0.01712794 0.00230295 0.0
-0.01829359 0.00201193 0.0
-0.01927192 0.00168835 0.0
-0.02004797 0.00133929 0.0
-0.02061056 0.00097115 0.0
-0.02095189 0.00058974 0.0
-0.02106733 0.00020046 0.0
-0.02095529 -0.00019155 0.0
-0.02061715 -0.00058123 0.0
-0.02005733 -0.00096339 0.0
-0.01928346 -0.00133258 0.0
-0.01830661 -0.00168291 0.0
-0.01714166 -0.00200788 0.0
-0.01580766 -0.00230030 0.0
-0.01432828 -0.00255219 0.0
-0.01273223 -0.00275481 0.0
-0.01105360 -0.00289871 0.0
-0.00933209 -0.00297394 0.0
-0.00761298 -0.00297040 0.0
-0.00594676 -0.00287844 0.0
-0.00438810 -0.00268980 0.0
-0.00299394 -0.00239923 0.0
-0.00182003 -0.00200716 0.0
-0.00091524 -0.00152444 0.0
-0.00031223 -0.00098073 0.0
-0.00001280 -0.00043964 0.0
0.00000000 -0.00019091 0.0
-0.00012500 0.00019005 0.0
-0.00067221 0.00099102 0.0
-0.00162420 0.00193714 0.0
-0.00296262 0.00286665 0.0
-0.00464201 0.00368933 0.0
-0.00660027 0.00435913 0.0
-0.00876702 0.00485713 0.0
-0.01106967 0.00518085 0.0
-0.01343760 0.00533761 0.0
-0.01580475 0.00534031 0.0
-0.01811119 0.00520472 0.0
-0.02030389 0.00494782 0.0
-0.02233690 0.00458657 0.0
-0.02417123 0.00413728 0.0
-0.02577448 0.00361517 0.0
-0.02712033 0.00303421 0.0
-0.02818813 0.00240708 0.0
-0.02896229 0.00174531 0.0
-0.02943197 0.00105942 0.0
-0.02959074 0.00035923 0.0
-0.02943638 -0.00034592 0.0
-0.02897082 -0.00104679 0.0
-0.02820025 -0.00173396 0.0
-0.02713530 -0.00239753 0.0
-0.02579137 -0.00302684 0.0
-0.02418907 -0.00361018 0.0
-0.02235469 -0.00413468 0.0
-0.02032070 -0.00458618 0.0
-0.01812626 -0.00494925 0.0
-0.01581754 -0.00520743 0.0
-0.01344784 -0.00534364 0.0
-0.01107737 -0.00534087 0.0
-0.00877246 -0.00518335 0.0
-0.00660397 -0.00485829 0.0
-0.00464461 -0.00435858 0.0
-0.00296480 -0.00368697 0.0
-0.00162649 -0.00286274 0.0
-0.00067486 -0.00193236 0.0
-0.00012789 -0.00098661 0.0
0.00000000 -0.00046353 0.0
-0.00023737 0.00046272 0.0
-0.00103534 0.00178898 0.0
-0.00233408 0.00323587 0.0
-0.00409033 0.00462289 0.0
-0.00624227 0.00584127 0.0
-0.00871468 0.00683153 0.0
-0.01142486 0.00756730 0.0
-0.01428795 0.00804394 0.0
-0.01722104 0.00827070 0.0
-0.02014610 0.00826536 0.0
-0.02299181 0.00805043 0.0
-0.02569462 0.00765063 0.0
-0.02819915 0.00709110 0.0
-0.03045815 0.00639628 0.0
-0.03243218 0.00558920 0.0
-0.03408914 0.00469116 0.0
-0.03540367 0.00372161 0.0
-0.03635668 0.00269832 0.0
-0.03693483 0.00163758 0.0
-0.03713021 0.00055460 0.0
-0.03694008 -0.00053605 0.0
-0.03636685 -0.00162002 0.0
-0.03541813 -0.00268268 0.0
-0.03410700 -0.00370866 0.0
-0.03245237 -0.00468146 0.0
-0.03047949 -0.00558307 0.0
-0.02822045 -0.00639372 0.0
-0.02571478 -0.00709184 0.0
-0.02300992 -0.00765411 0.0
-0.02016149 -0.00805585 0.0
-0.01723337 -0.00827176 0.0
-0.01429719 -0.00827704 0.0
-0.01143132 -0.00804922 0.0
-0.00871893 -0.00757069 0.0
-0.00624503 -0.00683248 0.0
-0.00409236 -0.00583963 0.0
-0.00233605 -0.00461905 0.0
-0.00103763 -0.00323078 0.0
-0.00024003 -0.00178421 0.0
0.00000000 -0.00083415 0.0
-0.00033709 0.00083348 0.0
-0.00137067 0.00282256 0.0
-0.00300037 0.00486558 0.0
-0.00515462 0.00677714 0.0
-0.00775205 0.00843869 0.0
-0.01070267 0.00978216 0.0
-0.01391151 0.01077613 0.0
-0.01728261 0.01141504 0.0
-0.02072269 0.01171078 0.0
-0.02414391 0.01168659 0.0
-0.02746584 0.01137236 0.0
-0.03061657 0.01080135 0.0
-0.03353324 0.01000776 0.0
-0.03616207 0.00902511 0.0
-0.03845808 0.00788521 0.0
-0.04038456 0.00661764 0.0
-0.04191252 0.00524956 0.0
-0.04302005 0.00380585 0.0
-0.04369188 0.00230940 0.0
-0.04391891 0.00078164 0.0
-0.04369802 -0.00075694 0.0
-0.04303195 -0.00228609 0.0
-0.04192944 -0.00378519 0.0
-0.04040549 -0.00523262 0.0
-0.03848175 -0.00660520 0.0
-0.03618712 -0.00787770 0.0
-0.03355828 -0.00902256 0.0
-0.03064032 -0.01000980 0.0
-0.02748720 -0.01080722 0.0
-0.02416208 -0.01138097 0.0
-0.02073722 -0.01169662 0.0
-0.01729344 -0.01172082 0.0
-0.01391895 -0.01142371 0.0
-0.01070735 -0.01078229 0.0
-0.00775479 -0.00978503 0.0
-0.00515634 -0.00843808 0.0
-0.00300189 -0.00677349 0.0
-0.00137256 -0.00486011 0.0
-0.00033955 -0.00281721 0.0
0.00000000 -0.00129005 0.0
-0.00042377 0.00128959 0.0
-0.00167320 0.00407199 0.0
-0.00361364 0.00680602 0.0
-0.00614565 0.00930914 0.0
-0.00916669 0.01145973 0.0
-0.01257044 0.01318590 0.0
-0.01624869 0.01445438 0.0
-0.02009428 0.01526063 0.0
-0.02400410 0.01562060 0.0
-0.02788151 0.01556399 0.0
-0.03163819 0.01512904 0.0
-0.03519526 0.01435842 0.0
-0.03848375 0.01329625 0.0
-0.04144467 0.01198603 0.0
-0.04402866 0.01046919 0.0
-0.04619544 0.00878442 0.0
-0.04791320 0.00696733 0.0
-0.04915795 0.00505060 0.0
-0.04991291 0.00306437 0.0
-0.05016813 0.00103685 0.0
-0.04992016 -0.00100491 0.0
-0.04917201 -0.00303424 0.0
-0.04793322 -0.00502397 0.0
-0.04622022 -0.00694562 0.0
-0.04405674 -0.00876867 0.0
-0.04147446 -0.01045998 0.0
-0.03851361 -0.01198341 0.0
-0.03522365 -0.01329976 0.0
-0.03166380 -0.01436707 0.0
-0.02790336 -0.01514141 0.0
-0.02402160 -0.01557837 0.0
-0.02010731 -0.01563511 0.0
-0.01625754 -0.01527347 0.0
-0.01257581 -0.01446401 0.0
-0.00916955 -0.01319129 0.0
-0.00614710 -0.01146052 0.0
-0.00361474 -0.00930585 0.0
-0.00167472 -0.00680012 0.0
-0.00042607 -0.00406586 0.0
0.00000000 -0.00182124 0.0
-0.00050002 0.00182102 0.0
-0.00194795 0.00551991 0.0
-0.00418116 0.00903923 0.0
-0.00707443 0.01220240 0.0
-0.01050377 0.01488906 0.0
-0.01434530 0.01702744 0.0
-0.01847644 0.01858552 0.0
-0.02277807 0.01956226 0.0
-0.02713694 0.01997946 0.0
-0.03144780 0.01987485 0.0
-0.03561499 0.01929622 0.0
-0.03955336 0.01829679 0.0
-0.04318875 0.01693164 0.0
-0.04645786 0.01525514 0.0
-0.04930787 0.01331920 0.0
-0.05169577 0.01117232 0.0
-0.05358769 0.00885924 0.0
-0.05495808 0.00642099 0.0
-0.05578915 0.00389544 0.0
-0.05607031 0.00131802 0.0
-0.05579790 -0.00127732 0.0
-0.05497507 -0.00385707 0.0
-0.05361192 -0.00638713 0.0
-0.05172583 -0.00883171 0.0
-0.04934203 -0.01115247 0.0
-0.04649421 -0.01330779 0.0
-0.04322533 -0.01525229 0.0
-0.03958831 -0.01693678 0.0
-0.03564669 -0.01830868 0.0
-0.03147502 -0.01931308 0.0
-0.02715890 -0.01989449 0.0
-0.02279452 -0.01999949 0.0
-0.01848767 -0.01958032 0.0
-0.01435208 -0.01859961 0.0
-0.01050723 -0.01703613 0.0
-0.00707592 -0.01489183 0.0
-0.00418199 -0.01219978 0.0
-0.00194918 -0.00903292 0.0
-0.00050219 -0.00551285 0.0
0.00000000 -0.00242118 0.0
-0.00056923 0.00242124 0.0
-0.00220389 0.00715457 0.0
-0.00471809 0.01155342 0.0
-0.00796310 0.01544741 0.0
-0.01179367 0.01871963 0.0
-0.01606754 0.02130130 0.0
-0.02064657 0.02316454 0.0
-0.02539860 0.02431428 0.0
-0.03019955 0.02478041 0.0
-0.03493519 0.02461050 0.0
-0.03950252 0.02386355 0.0
-0.04381048 0.02260475 0.0
-0.04778019 0.02090135 0.0
-0.05134471 0.01881965 0.0
-0.05444844 0.01642292 0.0
-0.05704635 0.01377024 0.0
-0.05910310 0.01091600 0.0
-0.06059218 0.00791007 0.0
-0.06149513 0.00479839 0.0
-0.06180100 0.00162389 0.0
-0.06150597 -0.00157235 0.0
-0.06061323 -0.00474981 0.0
-0.05913317 -0.00786718 0.0
-0.05708374 -0.01088113 0.0
-0.05449108 -0.01374513 0.0
-0.05139029 -0.01640859 0.0
-0.04782631 -0.01881627 0.0
-0.04385484 -0.02090825 0.0
-0.03954309 -0.02262043 0.0
-0.03497037 -0.02388580 0.0
-0.03022828 -0.02463658 0.0
-0.02542046 -0.02480730 0.0
-0.02066179 -0.02433899 0.0
-0.01607696 -0.02318443 0.0
-0.01179861 -0.02131448 0.0
-0.00796519 -0.01872525 0.0
-0.00471898 -0.01544598 0.0
-0.00220498 -0.01154692 0.0
-0.00057130 -0.00714653 0.0
0.00000000 -0.00308677 0.0
-0.00063479 0.00308713 0.0
-0.00245125 0.00897103 0.0
-0.00524293 0.01434510 0.0
-0.00883920 0.01904367 0.0
-0.01307364 0.02295406 0.0
-0.01778480 0.02601246 0.0
-0.02281777 0.02819751 0.0
-0.02802615 0.02952266 0.0
-0.03327401 0.03002826 0.0
-0.03843752 0.02977400 0.0
-0.04340602 0.02883205 0.0
-0.04808255 0.02728128 0.0
-0.05238382 0.02520262 0.0
-0.05623970 0.02267552 0.0
-0.05959239 0.01977561 0.0
-0.06239545 0.01657330 0.0
-0.06461267 0.01313321 0.0
-0.06621703 0.00951443 0.0
-0.06718981 0.00577118 0.0
-0.06751993 0.00195400 0.0
-0.06720347 -0.00188881 0.0
-0.06624359 -0.00570969 0.0
-0.06465070 -0.00946008 0.0
-0.06244290 -0.01308894 0.0
-0.05964671 -0.01654132 0.0
-0.05629805 -0.01975725 0.0
-0.05244324 -0.02267107 0.0
-0.04814016 -0.02521133 0.0
-0.04345922 -0.02730136 0.0
-0.03848421 -0.02886081 0.0
-0.03331274 -0.02980804 0.0
-0.02805623 -0.03006381 0.0
-0.02283932 -0.02955590 0.0
-0.01779869 -0.02822506 0.0
-0.01308139 -0.02603178 0.0
-0.00884277 -0.02296387 0.0
-0.00524440 -0.01904434 0.0
-0.00245243 -0.01433888 0.0
-0.00063683 -0.00896213 0.0
0.00000000 -0.00381821 0.0
-0.00069994 0.00381888 0.0
-0.00270044 0.01097152 0.0
-0.00577533 0.01741999 0.0
-0.00973257 0.02300091 0.0
-0.01438419 0.02760568 0.0
-0.01954846 0.03117673 0.0
-0.02505233 0.03370138 0.0
-0.03073377 0.03520409 0.0
-0.03644385 0.03573834 0.0
-0.04204829 0.03537843 0.0
-0.04742831 0.03421207 0.0
-0.05248093 0.03233391 0.0
-0.05711862 0.02984031 0.0
-0.06126846 0.02682535 0.0
-0.06487100 0.02337816 0.0
-0.06787897 0.01958126 0.0
-0.07025585 0.01551009 0.0
-0.07197465 0.01123323 0.0
-0.07301680 0.00681332 0.0
-0.07337129 0.00230850 0.0
-0.07303421 -0.00222589 0.0
-0.07200858 -0.00673532 0.0
-0.07030452 -0.01116413 0.0
-0.06793987 -0.01545358 0.0
-0.06494103 -0.01954016 0.0
-0.06134409 -0.02335419 0.0
-0.05719615 -0.02681901 0.0
-0.05255671 -0.02985076 0.0
-0.04749901 -0.03235906 0.0
-0.04211114 -0.03424867 0.0
-0.03649685 -0.03542233 0.0
-0.03077582 -0.03578483 0.0
-0.02508334 -0.03524838 0.0
-0.01956931 -0.03373909 0.0
-0.01439660 -0.03120448 0.0
-0.00973887 -0.02762159 0.0
-0.00577810 -0.02300511 0.0
-0.00270205 -0.01741492 0.0
-0.00070203 -0.01096215 0.0
0.00000000 -0.00461872 0.0
-0.00076770 0.00461973 0.0
-0.00296167 0.01316548 0.0
-0.00633511 0.02079343 0.0
-0.01067387 0.02733966 0.0
-0.01576720 0.03269900 0.0
-0.02141155 0.03682108 0.0
-0.02741402 0.03970384 0.0
-0.03359535 0.04138543 0.0
-0.03979231 0.04193530 0.0
-0.04585919 0.04144532 0.0
-0.05166861 0.04002148 0.0
-0.05711142 0.03777671 0.0
-0.06209600 0.03482489 0.0
-0.06654710 0.03127645 0.0
-0.07040420 0.02723525 0.0
-0.07361983 0.02279690 0.0
-0.07615788 0.01804813 0.0
-0.07799191 0.01306727 0.0
-0.07910394 0.00792535 0.0
-0.07948333 0.00268789 0.0
-0.07912624 -0.00258298 0.0
-0.07803542 -0.00782615 0.0
-0.07622043 -0.01297912 0.0
-0.07369836 -0.01797565 0.0
-0.07049486 -0.02274365 0.0
-0.06664554 -0.02720351 0.0
-0.06219758 -0.03126697 0.0
-0.05721151 -0.03483683 0.0
-0.05176293 -0.03780764 0.0
-0.04594408 -0.04006752 0.0
-0.03986500 -0.04150141 0.0
-0.03365419 -0.04199564 0.0
-0.02745857 -0.04144400 0.0
-0.02144262 -0.03975503 0.0
-0.01578670 -0.03686040 0.0
-0.01068454 -0.03272374 0.0
-0.00634015 -0.02734950 0.0
-0.00296416 -0.02079091 0.0
-0.00076997 -0.01315633 0.0
0.00000000 -0.00549446 0.0
-0.00084094 0.00549583 0.0
-0.00324491 0.01556946 0.0
-0.00694200 0.02449051 0.0
-0.01169393 0.03209159 0.0
-0.01726502 0.03827009 0.0
-0.02342762 0.04298367 0.0
-0.02996683 0.04624304 0.0
-0.03668431 0.04810290 0.0
-0.04340102 0.04865200 0.0
-0.04995888 0.04800317 0.0
-0.05622134 0.04628395 0.0
-0.06207304 0.04362840 0.0
-0.06741861 0.04017046 0.0
-0.07218100 0.03603883 0.0
-0.07629937 0.03135362 0.0
-0.07972689 0.02622442 0.0
-0.08242857 0.02074981 0.0
-0.08437927 0.01501797 0.0
-0.08556209 0.00910816 0.0
-0.08596710 0.00309289 0.0
-0.08559062 -0.00295946 0.0
-0.08443498 -0.00898178 0.0
-0.08250885 -0.01490526 0.0
-0.07982797 -0.02065652 0.0
-0.07641655 -0.02615507 0.0
-0.07230888 -0.03131118 0.0
-0.06755139 -0.03602445 0.0
-0.06220489 -0.04018334 0.0
-0.05634674 -0.04366578 0.0
-0.05007302 -0.04634124 0.0
-0.04350014 -0.04807429 0.0
-0.03676596 -0.04872982 0.0
-0.03003007 -0.04817988 0.0
-0.02347306 -0.04631203 0.0
-0.01729473 -0.04303873 0.0
-0.01171112 -0.03830734 0.0
-0.00695059 -0.03211003 0.0
-0.00324888 -0.02449262 0.0
-0.00084354 -0.01556166 0.0
0.00000000 -0.00645441 0.0
-0.00092245 0.00645616 0.0
-0.00356006 0.01820706 0.0
-0.00761572 0.02854617 0.0
-0.01282374 0.03729961 0.0
-0.01892019 0.04436654 0.0
-0.02565025 0.04971373 0.0
-0.03277431 0.05336709 0.0
-0.04007270 0.05540129 0.0
-0.04734898 0.05592828 0.0
-0.05443168 0.05508587 0.0
-0.06117469 0.05302696 0.0
-0.06745655 0.04991026 0.0
-0.07317867 0.04589258 0.0
-0.07826303 0.04112320 0.0
-0.08264947 0.03574005 0.0
-0.08629282 0.02986776 0.0
-0.08916021 0.02361720 0.0
-0.09122864 0.01708640 0.0
-0.09248293 0.01036245 0.0
-0.09291424 0.00352421 0.0
-0.09251920 -0.00335450 0.0
-0.09129958 -0.01020141 0.0
-0.08926265 -0.01694218 0.0
-0.08642220 -0.02349697 0.0
-0.08280004 -0.02977723 0.0
-0.07842814 -0.03568308 0.0
-0.07335112 -0.04110147 0.0
-0.06762901 -0.04590545 0.0
-0.06134013 -0.04995466 0.0
-0.05458381 -0.05309756 0.0
-0.04748274 -0.05517536 0.0
-0.04018457 -0.05602798 0.0
-0.03286261 -0.05550184 0.0
-0.02571526 -0.05345938 0.0
-0.01896405 -0.04978994 0.0
-0.01285017 -0.04442122 0.0
-0.00762949 -0.03733070 0.0
-0.00356626 -0.02855584 0.0
-0.00092560 -0.01820232 0.0
0.00000000 -0.00751042 0.0
-0.00101503 0.00751259 0.0
-0.00391709 0.02110911 0.0
-0.00837624 0.03300532 0.0
-0.01409460 0.04301795 0.0
-0.02077549 0.05104743 0.0
-0.02813288 0.05707112 0.0
-0.03589906 0.06113327 0.0
-0.04383044 0.06333267 0.0
-0.05171141 0.06380924 0.0
-0.05935614 0.06273060 0.0
-0.06660882 0.06027963 0.0
-0.07334225 0.05664369 0.0
-0.07945553 0.05200586 0.0
-0.08487088 0.04653854 0.0
-0.08953011 0.04039928 0.0
-0.09339109 0.03372875 0.0
-0.09642435 0.02665046 0.0
-0.09861004 0.01927209 0.0
-0.09993554 0.01168795 0.0
-0.10039360 0.00398227 0.0
-0.09998129 -0.00376681 0.0
-0.09869961 -0.01148308 0.0
-0.09655395 -0.01908784 0.0
-0.09355525 -0.02649568 0.0
-0.08972186 -0.03361061 0.0
-0.08508213 -0.04032281 0.0
-0.07967743 -0.04650617 0.0
-0.07356564 -0.05201723 0.0
-0.06682480 -0.05669550 0.0
-0.05955662 -0.06036574 0.0
-0.05188961 -0.06284236 0.0
-0.04398146 -0.06393613 0.0
-0.03602018 -0.06346311 0.0
-0.02822383 -0.06125573 0.0
-0.02083838 -0.05717538 0.0
-0.01413365 -0.05112594 0.0
-0.00839724 -0.04306711 0.0
-0.00392650 -0.03302658 0.0
-0.00101899 -0.02110982 0.0
0.00000000 -0.00867730 0.0
-0.00112160 0.00867995 0.0
-0.00432632 0.02431382 0.0
-0.00924409 0.03792308 0.0
-0.01553843 0.04931229 0.0
-0.02287406 0.05838305 0.0
-0.03092862 0.06512567 0.0
-0.03940217 0.06960681 0.0
-0.04802423 0.07195472 0.0
-0.05655813 0.07234313 0.0
-0.06480293 0.07097540 0.0
-0.07259319 0.06806989 0.0
-0.07979688 0.06384738 0.0
-0.08631212 0.05852109 0.0
-0.09206303 0.05228944 0.0
-0.09699524 0.04533149 0.0
-0.10107140 0.03780491 0.0
-0.10426701 0.02984607 0.0
-0.10656674 0.02157182 0.0
-0.10796148 0.01308269 0.0
-0.10844619 0.00446699 0.0
-0.10801857 -0.00419444 0.0
-0.10667864 -0.01282301 0.0
-0.10442925 -0.02133722 0.0
-0.10127748 -0.02964745 0.0
-0.09723684 -0.03765125 0.0
-0.09233039 -0.04522925 0.0
-0.08659446 -0.05224210 0.0
-0.08008292 -0.05852876 0.0
-0.07287180 -0.06390662 0.0
-0.06506375 -0.06817378 0.0
-0.05679229 -0.07111382 0.0
-0.04822498 -0.07250343 0.0
-0.03956540 -0.07212268 0.0
-0.03105321 -0.06976792 0.0
-0.02296193 -0.06526666 0.0
-0.01559430 -0.05849357 0.0
-0.00927486 -0.04938653 0.0
-0.00434016 -0.03796127 0.0
-0.00112670 -0.02432328 0.0
0.00000000 -0.00997305 0.0
-0.00124524 0.00997623 0.0
-0.00479862 0.02786720 0.0
-0.01024062 0.04336508 0.0
-0.01718800 0.05625966 0.0
-0.02525940 0.06645445 0.0
-0.03408983 0.07395609 0.0
-0.04334226 0.07885924 0.0
-0.05271592 0.08132838 0.0
-0.06195125 0.08157846 0.0
-0.07083169 0.07985583 0.0
-0.07918276 0.07642096 0.0
-0.08686907 0.07153369 0.0
-0.09378977 0.06544179 0.0
-0.09987320 0.05837287 0.0
-0.10507115 0.05052944 0.0
-0.10935331 0.04208707 0.0
-0.11270213 0.03319489 0.0
-0.11510844 0.02397813 0.0
-0.11656785 0.01454211 0.0
-0.11707826 0.00497739 0.0
-0.11663822 -0.00463447 0.0
-0.11524654 -0.01421470 0.0
-0.11290276 -0.02368100 0.0
-0.10960885 -0.03294136 0.0
-0.10537183 -0.04188828 0.0
-0.10020741 -0.05039366 0.0
-0.09414457 -0.05830494 0.0
-0.08723073 -0.06544260 0.0
-0.07953750 -0.07159985 0.0
-0.07116645 -0.07654483 0.0
-0.06225456 -0.08002571 0.0
-0.05297868 -0.08177930 0.0
-0.04355851 -0.08154286 0.0
-0.03425721 -0.07906922 0.0
-0.02537939 -0.07414447 0.0
-0.01726573 -0.06660721 0.0
-0.01028429 -0.05636797 0.0
-0.00481840 -0.04342715 0.0
-0.00125189 -0.02788979 0.0
0.00000000 -0.01141912 0.0
-0.00138927 0.01142290 0.0
-0.00534558 0.03182350 0.0
-0.01138822 0.04940771 0.0
-0.01907692 0.06394835 0.0
-0.02797501 0.07535254 0.0
-0.03766724 0.08364832 0.0
-0.04777378 0.08896578 0.0
-0.05795994 0.09151454 0.0
-0.06794157 0.09156008 0.0
-0.07748646 0.08940072 0.0
-0.08641245 0.08534694 0.0
-0.09458302 0.07970425 0.0
-0.10190118 0.07275996 0.0
-0.10830257 0.06477425 0.0
-0.11374821 0.05597507 0.0
-0.11821761 0.04655648 0.0
-0.12170265 0.03667993 0.0
-0.12420222 0.02647770 0.0
-0.12571812 0.01605801 0.0
-0.12625202 0.00551129 0.0
-0.12580367 -0.00508281 0.0
-0.12437033 -0.01564804 0.0
-0.12194738 -0.02610395 0.0
-0.11853022 -0.03635852 0.0
-0.11411737 -0.04630112 0.0
-0.10871474 -0.05579629 0.0
-0.10234102 -0.06467865 0.0
-0.09503408 -0.07274954 0.0
-0.08685792 -0.07977600 0.0
-0.07791011 -0.08549264 0.0
-0.06832874 -0.08960708 0.0
-0.05829862 -0.09180942 0.0
-0.04805556 -0.09178592 0.0
-0.03788804 -0.08923672 0.0
-0.02813553 -0.08389698 0.0
-0.01918257 -0.07556017 0.0
-0.01144855 -0.06410199 0.0
-0.00537313 -0.04950257 0.0
-0.00139799 -0.03186492 0.0
0.00000000 -0.01304072 0.0
-0.00155734 0.01304521 0.0
-0.00597960 0.03624576 0.0
-0.01271036 0.05613846 0.0
-0.02123947 0.07247746 0.0
-0.03106364 0.08517671 0.0
-0.04170828 0.09429295 0.0