# vtk DataFile Version 4.0
2D velocity field
ASCII
DATASET STRUCTURED_GRID
DIMENSIONS 40 40 1
POINTS 1600 float
0.00000000 0.00000000 1.0
1.00000000 0.00000000 1.0
2.00000000 0.00000000 1.0
3.00000000 0.00000000 1.0
4.00000000 0.00000000 1.0
5.00000000 0.00000000 1.0
6.00000000 0.00000000 1.0
7.00000000 0.00000000 1.0
8.00000000 0.00000000 1.0
9.00000000 0.00000000 1.0
10.00000000 0.00000000 1.0
11.00000000 0.00000000 1.0
12.00000000 0.00000000 1.0
13.00000000 0.00000000 1.0
14.00000000 0.00000000 1.0
15.00000000 0.00000000 1.0
16.00000000 0.00000000 1.0
17.00000000 0.00000000 1.0
18.00000000 0.00000000 1.0
19.00000000 0.00000000 1.0
20.00000000 0.00000000 1.0
21.00000000 0.00000000 1.0
22.00000000 0.00000000 1.0
23.00000000 0.00000000 1.0
24.00000000 0.00000000 1.0
25.00000000 0.00000000 1.0
26.00000000 0.00000000 1.0
27.00000000 0.00000000 1.0
28.00000000 0.00000000 1.0
29.00000000 0.00000000 1.0
30.00000000 0.00000000 1.0
31.00000000 0.00000000 1.0
32.00000000 0.00000000 1.0
33.00000000 0.00000000 1.0
34.00000000 0.00000000 1.0
35.00000000 0.00000000 1.0
36.00000000 0.00000000 1.0
37.00000000 0.00000000 1.0
38.00000000 0.00000000 1.0
39.00000000 0.00000000 1.0
0.00000000 1.00000000 1.0
1.00000000 1.00000000 1.0
2.00000000 1.00000000 1.0
3.00000000 1.00000000 1.0
4.00000000 1.00000000 1.0
5.00000000 1.00000000 1.0
6.00000000 1.00000000 1.0
7.00000000 1.00000000 1.0
8.00000000 1.00000000 1.0
9.00000000 1.00000000 1.0
10.00000000 1.00000000 1.0
11.00000000 1.00000000 1.0
12.00000000 1.00000000 1.0
13.00000000 1.00000000 1.0
14.00000000 1.00000000 1.0
15.00000000 1.00000000 1.0
16.00000000 1.00000000 1.0
17.00000000 1.00000000 1.0
18.00000000 1.00000000 1.0
19.00000000 1.00000000 1.0
20.00000000 1.00000000 1.0
21.00000000 1.00000000 1.0
22.00000000 1.00000000 1.0
23.00000000 1.00000000 1.0
24.00000000 1.00000000 1.0
25.00000000 1.00000000 1.0
26.00000000 1.00000000 1.0
27.00000000 1.00000000 1.0
28.00000000 1.00000000 1.0
29.00000000 1.00000000 1.0
30.00000000 1.00000000 1.0
31.00000000 1.00000000 1.0
32.00000000 1.00000000 1.0
33.00000000 1.00000000 1.0
34.00000000 1.00000000 1.0
35.00000000 1.00000000 1.0
36.00000000 1.00000000 1.0
37.00000000 1.00000000 1.0
38.00000000 1.00000000 1.0
39.00000000 1.00000000 1.0
0.00000000 2.00000000 1.0
1.00000000 2.00000000 1.0
2.00000000 2.00000000 1.0
3.00000000 2.00000000 1.0
4.00000000 2.00000000 1.0
5.00000000 2.00000000 1.0
6.00000000 2.00000000 1.0
7.00000000 2.00000000 1.0
8.00000000 2.00000000 1.0
9.00000000 2.00000000 1.0
10.00000000 2.00000000 1.0
11.00000000 2.00000000 1.0
12.00000000 2.00000000 1.0
13.00000000 2.00000000 1.0
14.00000000 2.00000000 1.0
15.00000000 2.00000000 1.0
16.00000000 2.00000000 1.0
17.00000000 2.00000000 1.0
18.00000000 2.00000000 1.0
19.00000000 2.00000000 1.0
20.00000000 2.00000000 1.0
21.00000000 2.00000000 1.0
22.00000000 2.00000000 1.0
23.00000000 2.00000000 1.0
24.00000000 2.00000000 1.0
25.00000000 2.00000000 1.0
26.00000000 2.00000000 1.0
27.00000000 2.00000000 1.0
28.00000000 2.00000000 1.0
29.00000000 2.00000000 1.0
30.00000000 2.00000000 1.0
31.00000000 2.00000000 1.0
32.00000000 2.00000000 1.0
33.00000000 2.00000000 1.0
34.00000000 2.00000000 1.0
35.00000000 2.00000000 1.0
36.00000000 2.00000000 1.0
37.00000000 2.00000000 1.0
38.00000000 2.00000000 1.0
39.00000000 2.00000000 1.0
0.00000000 3.00000000 1.0
1.00000000 3.00000000 1.0
2.00000000 3.00000000 1.0
3.00000000 3.00000000 1.0
4.00000000 3.00000000 1.0
5.00000000 3.00000000 1.0
6.00000000 3.00000000 1.0
7.00000000 3.00000000 1.0
8.00000000 3.00000000 1.0
9.00000000 3.00000000 1.0
10.00000000 3.00000000 1.0
11.00000000 3.00000000 1.0
12.00000000 3.00000000 1.0
13.00000000 3.00000000 1.0
14.00000000 3.00000000 1.0
15.00000000 3.00000000 1.0
16.00000000 3.00000000 1.0
17.00000000 3.00000000 1.0
18.00000000 3.00000000 1.0
19.00000000 3.00000000 1.0
20.00000000 3.00000000 1.0
21.00000000 3.00000000 1.0
22.00000000 3.00000000 1.0
23.00000000 3.00000000 1.0
24.00000000 3.00000000 1.0
25.00000000 3.00000000 1.0
26.00000000 3.00000000 1.0
27.00000000 3.00000000 1.0
28.00000000 3.00000000 1.0
29.00000000 3.00000000 1.0
30.00000000 3.00000000 1.0
31.00000000 3.00000000 1.0
32.00000000 3.00000000 1.0
33.00000000 3.00000000 1.0
34.00000000 3.00000000 1.0
35.00000000 3.00000000 1.0
36.00000000 3.00000000 1.0
37.00000000 3.00000000 1.0
38.00000000 3.00000000 1.0
39.00000000 3.00000000 1.0
0.00000000 4.00000000 1.0
1.00000000 4.00000000 1.0
2.00000000 4.00000000 1.0
3.00000000 4.00000000 1.0
4.00000000 4.00000000 1.0
5.00000000 4.00000000 1.0
6.00000000 4.00000000 1.0
7.00000000 4.00000000 1.0
8.00000000 4.00000000 1.0
9.00000000 4.00000000 1.0
10.00000000 4.00000000 1.0
11.00000000 4.00000000 1.0
12.00000000 4.00000000 1.0
13.00000000 4.00000000 1.0
14.00000000 4.00000000 1.0
15.00000000 4.00000000 1.0
16.00000000 4.00000000 1.0
17.00000000 4.00000000 1.0
18.00000000 4.00000000 1.0
19.00000000 4.00000000 1.0
20.00000000 4.00000000 1.0
21.00000000 4.00000000 1.0
22.00000000 4.00000000 1.0
23.00000000 4.00000000 1.0
24.00000000 4.00000000 1.0
25.00000000 4.00000000 1.0
26.00000000 4.00000000 1.0
27.00000000 4.00000000 1.0
28.00000000 4.00000000 1.0
29.00000000 4.00000000 1.0
30.00000000 4.00000000 1.0
31.00000000 4.00000000 1.0
32.00000000 4.00000000 1.0
33.00000000 4.00000000 1.0
34.00000000 4.00000000 1.0
35.00000000 4.00000000 1.0
36.00000000 4.00000000 1.0
37.00000000 4.00000000 1.0
38.00000000 4.00000000 1.0
39.00000000 4.00000000 1.0
0.00000000 5.00000000 1.0
1.00000000 5.00000000 1.0
2.00000000 5.00000000 1.0
3.00000000 5.00000000 1.0
4.00000000 5.00000000 1.0
5.00000000 5.00000000 1.0
6.00000000 5.00000000 1.0
7.00000000 5.00000000 1.0
8.00000000 5.00000000 1.0
9.00000000 5.00000000 1.0
10.00000000 5.00000000 1.0
11.00000000 5.00000000 1.0
12.00000000 5.00000000 1.0
13.00000000 5.00000000 1.0
14.00000000 5.00000000 1.0
15.00000000 5.00000000 1.0
16.00000000 5.00000000 1.0
17.00000000 5.00000000 1.0
18.00000000 5.00000000 1.0
19.00000000 5.00000000 1.0
20.00000000 5.00000000 1.0
21.00000000 5.00000000 1.0
22.00000000 5.00000000 1.0
23.00000000 5.00000000 1.0
24.00000000 5.00000000 1.0
25.00000000 5.00000000 1.0
26.00000000 5.00000000 1.0
27.00000000 5.00000000 1.0
28.00000000 5.00000000 1.0
29.00000000 5.00000000 1.0
30.00000000 5.00000000 1.0
31.00000000 5.00000000 1.0
32.00000000 5.00000000 1.0
33.00000000 5.00000000 1.0
34.00000000 5.00000000 1.0
35.00000000 5.00000000 1.0
36.00000000 5.00000000 1.0
37.00000000 5.00000000 1.0
38.00000000 5.00000000 1.0
39.00000000 5.00000000 1.0
0.00000000 6.00000000 1.0
1.00000000 6.00000000 1.0
2.00000000 6.00000000 1.0
3.00000000 6.00000000 1.0
4.00000000 6.00000000 1.0
5.00000000 6.00000000 1.0
6.00000000 6.00000000 1.0
7.00000000 6.00000000 1.0
8.00000000 6.00000000 1.0
9.00000000 6.00000000 1.0
10.00000000 6.00000000 1.0
11.00000000 6.00000000 1.0
12.00000000 6.00000000 1.0
13.00000000 6.00000000 1.0
14.00000000 6.00000000 1.0
15.00000000 6.00000000 1.0
16.00000000 6.00000000 1.0
17.00000000 6.00000000 1.0
18.00000000 6.00000000 1.0
19.00000000 6.00000000 1.0
20.00000000 6.00000000 1.0
21.00000000 6.00000000 1.0
22.00000000 6.00000000 1.0
23.00000000 6.00000000 1.0
24.00000000 6.00000000 1.0
25.00000000 6.00000000 1.0
26.00000000 6.00000000 1.0
27.00000000 6.00000000 1.0
28.00000000 6.00000000 1.0
29.00000000 6.00000000 1.0
30.00000000 6.00000000 1.0
31.00000000 6.00000000 1.0
32.00000000 6.00000000 1.0
33.00000000 6.00000000 1.0
34.00000000 6.00000000 1.0
35.00000000 6.00000000 1.0
36.00000000 6.00000000 1.0
37.00000000 6.00000000 1.0
38.00000000 6.00000000 1.0
39.00000000 6.00000000 1.0
0.00000000 7.00000000 1.0
1.00000000 7.00000000 1.0
2.00000000 7.00000000 1.0
3.00000000 7.00000000 1.0
4.00000000 7.00000000 1.0
5.00000000 7.00000000 1.0
6.00000000 7.00000000 1.0
7.00000000 7.00000000 1.0
8.00000000 7.00000000 1.0
9.00000000 7.00000000 1.0
10.00000000 7.00000000 1.0
11.00000000 7.00000000 1.0
12.00000000 7.00000000 1.0
13.00000000 7.00000000 1.0
14.00000000 7.00000000 1.0
15.00000000 7.00000000 1.0
16.00000000 7.00000000 1.0
17.00000000 7.00000000 1.0
18.00000000 7.00000000 1.0
19.00000000 7.00000000 1.0
20.00000000 7.00000000 1.0
21.00000000 7.00000000 1.0
22.00000000 7.00000000 1.0
23.00000000 7.00000000 1.0
24.00000000 7.00000000 1.0
25.00000000 7.00000000 1.0
26.00000000 7.00000000 1.0
27.00000000 7.00000000 1.0
28.00000000 7.00000000 1.0
29.00000000 7.00000000 1.0
30.00000000 7.00000000 1.0
31.00000000 7.00000000 1.0
32.00000000 7.00000000 1.0
33.00000000 7.00000000 1.0
34.00000000 7.00000000 1.0
35.00000000 7.00000000 1.0
36.00000000 7.00000000 1.0
37.00000000 7.00000000 1.0
38.00000000 7.00000000 1.0
39.00000000 7.00000000 1.0
0.00000000 8.00000000 1.0
1.00000000 8.00000000 1.0
2.00000000 8.00000000 1.0
3.00000000 8.00000000 1.0
4.00000000 8.00000000 1.0
5.00000000 8.00000000 1.0
6.00000000 8.00000000 1.0
7.00000000 8.00000000 1.0
8.00000000 8.00000000 1.0
9.00000000 8.00000000 1.0
10.00000000 8.00000000 1.0
11.00000000 8.00000000 1.0
12.00000000 8.00000000 1.0
13.00000000 8.00000000 1.0
14.00000000 8.00000000 1.0
15.00000000 8.00000000 1.0
16.00000000 8.00000000 1.0
17.00000000 8.00000000 1.0
18.00000000 8.00000000 1.0
19.00000000 8.00000000 1.0
20.00000000 8.00000000 1.0
21.00000000 8.00000000 1.0
22.00000000 8.00000000 1.0
23.00000000 8.00000000 1.0
24.00000000 8.00000000 1.0
25.00000000 8.00000000 1.0
26.00000000 8.00000000 1.0
27.00000000 8.00000000 1.0
28.00000000 8.00000000 1.0
29.00000000 8.00000000 1.0
30.00000000 8.00000000 1.0
31.00000000 8.00000000 1.0
32.00000000 8.00000000 1.0
33.00000000 8.00000000 1.0
34.00000000 8.00000000 1.0
35.00000000 8.00000000 1.0
36.00000000 8.00000000 1.0
37.00000000 8.00000000 1.0
38.00000000 8.00000000 1.0
39.00000000 8.00000000 1.0
0.00000000 9.00000000 1.0
1.00000000 9.00000000 1.0
2.00000000 9.00000000 1.0
3.00000000 9.00000000 1.0
4.00000000 9.00000000 1.0
5.00000000 9.00000000 1.0
6.00000000 9.00000000 1.0
7.00000000 9.00000000 1.0
8.00000000 9.00000000 1.0
[...]
POINT_DATA 1600
VECTORS velocity double
0.00000000 0.00001538 0.0
0.00000026 -0.00001548 0.0
0.00000041 0.00001237 0.0
0.00000050 0.00006716 0.0
0.00000050 0.00012737 0.0
0.00000043 0.00018270 0.0
0.00000032 0.00022888 0.0
0.00000017 0.00026445 0.0
0.00000001 0.00028923 0.0
-0.00000017 0.00030363 0.0
-0.00000035 0.00030837 0.0
-0.00000053 0.00030432 0.0
-0.00000070 0.00029240 0.0
-0.00000086 0.00027357 0.0
-0.00000100 0.00024876 0.0
-0.00000112 0.00021888 0.0
-0.00000123 0.00018481 0.0
-0.00000131 0.00014739 0.0
-0.00000137 0.00010740 0.0
-0.00000140 0.00006559 0.0
-0.00000142 0.00002270 0.0
-0.00000140 -0.00002057 0.0
-0.00000137 -0.00006352 0.0
-0.00000131 -0.00010543 0.0
-0.00000123 -0.00014556 0.0
-0.00000112 -0.00018315 0.0
-0.00000100 -0.00021740 0.0
-0.00000086 -0.00024745 0.0
-0.00000070 -0.00027242 0.0
-0.00000053 -0.00029136 0.0
-0.00000035 -0.00030334 0.0
-0.00000017 -0.00030739 0.0
0.00000001 -0.00030258 0.0
0.00000018 -0.00028806 0.0
0.00000032 -0.00026312 0.0
0.00000044 -0.00022736 0.0
0.00000050 -0.00018098 0.0
0.00000050 -0.00012547 0.0
0.00000041 -0.00006514 0.0
0.00000025 -0.00001034 0.0
0.00000000 0.00004473 0.0
0.00008053 -0.00004519 0.0
0.00001612 0.00009431 0.0
-0.00022770 0.00032932 0.0
-0.00066520 0.00058421 0.0
-0.00128277 0.00082061 0.0
-0.00205316 0.00102048 0.0
-0.00294319 0.00117634 0.0
-0.00391793 0.00128618 0.0
-0.00494303 0.00135094 0.0
-0.00598596 0.00137318 0.0
-0.00701679 0.00135632 0.0
-0.00800853 0.00130426 0.0
-0.00893732 0.00122108 0.0
-0.00978247 0.00111091 0.0
-0.01052640 0.00097782 0.0
-0.01115455 0.00082573 0.0
-0.01165522 0.00065838 0.0
-0.01201948 0.00047936 0.0
-0.01224100 0.00029208 0.0
-0.01231599 0.00009985 0.0
-0.01224314 -0.00009409 0.0
-0.01202358 -0.00028655 0.0
-0.01166096 -0.00047427 0.0
-0.01116145 -0.00065390 0.0
-0.01053393 -0.00082197 0.0
-0.00979004 -0.00097483 0.0
-0.00894437 -0.00110866 0.0
-0.00801458 -0.00121946 0.0
-0.00702148 -0.00130311 0.0
-0.00598911 -0.00135543 0.0
-0.00494463 -0.00137229 0.0
-0.00391818 -0.00134979 0.0
-0.00294245 -0.00128453 0.0
-0.00205194 -0.00117402 0.0
-0.00128164 -0.00101741 0.0
-0.00066472 -0.00081678 0.0
-0.00022832 -0.00057975 0.0
0.00001419 -0.00032453 0.0
0.00007755 -0.00008976 0.0
0.00000000 0.00001907 0.0
0.00000763 -0.00001991 0.0
-0.00025089 0.00035283 0.0
-0.00081690 0.00089533 0.0
-0.00170463 0.00147194 0.0
-0.00289227 0.00200825 0.0
-0.00433708 0.00246529 0.0
-0.00598528 0.00282454 0.0
-0.00777852 0.00307942 0.0
-0.00965797 0.00323039 0.0
-0.01156690 0.00328211 0.0
-0.01345230 0.00324173 0.0
-0.01526588 0.00311783 0.0
-0.01696453 0.00291972 0.0
-0.01851060 0.00265699 0.0
-0.01987194 0.00233916 0.0
-0.02102174 0.00197553 0.0
-0.02193844 0.00157508 0.0
-0.02260548 0.00114640 0.0
-0.02301113 0.00069774 0.0
-0.02314837 0.00023709 0.0
-0.02301476 -0.00022771 0.0
-0.02261244 -0.00068887 0.0
-0.02194818 -0.00113852 0.0
-0.02103349 -0.00156859 0.0
-0.01988479 -0.00197067 0.0
-0.01852358 -0.00233603 0.0
-0.01697670 -0.00265554 0.0
-0.01527644 -0.00291972 0.0
-0.01346065 -0.00311890 0.0
-0.01157269 -0.00324338 0.0
-0.00966120 -0.00328378 0.0
-0.00777948 -0.00323151 0.0
-0.00598454 -0.00307947 0.0
-0.00433541 -0.00282314 0.0
-0.00289057 -0.00246225 0.0
-0.00170371 -0.00200364 0.0
-0.00081735 -0.00146610 0.0
-0.00025287 -0.00088901 0.0
0.00000464 -0.00034726 0.0
0.00000000 -0.00012010 0.0
-0.00010779 0.00011909 0.0
-0.00062041 0.00086545 0.0
-0.00155099 0.00182590 0.0
-0.00289926 0.00282020 0.0
-0.00463197 0.00374097 0.0
-0.00669374 0.00452705 0.0
-0.00901591 0.00514671 0.0
-0.01152335 0.00558686 0.0
-0.01413934 0.00584637 0.0
-0.01678899 0.00593176 0.0
-0.01940162 0.00585436 0.0
-0.02191223 0.00562844 0.0
-0.02426242 0.00526991 0.0
-0.02640087 0.00479544 0.0
-0.02828354 0.00422182 0.0
-0.02987359 0.00356558 0.0
-0.03114126 0.00284275 0.0
-0.03206366 0.00206880 0.0
-0.03262458 0.00125865 0.0
-0.03281427 0.00042678 0.0
-0.03262937 -0.00041261 0.0
-0.03207287 -0.00124537 0.0
-0.03115416 -0.00205723 0.0
-0.02988919 -0.00283355 0.0
-0.02830067 -0.00355920 0.0
-0.02641826 -0.00421844 0.0
-0.02427884 -0.00479496 0.0
-0.02192661 -0.00527194 0.0
-0.01941317 -0.00563234 0.0
-0.01679725 -0.00585930 0.0
-0.01414424 -0.00593679 0.0
-0.01152523 -0.00585052 0.0
-0.00901545 -0.00558926 0.0
-0.00669187 -0.00514671 0.0
-0.00462977 -0.00452435 0.0
-0.00289772 -0.00373569 0.0
-0.00155082 -0.00281299 0.0
-0.00062184 -0.00181799 0.0
-0.00011041 -0.00085869 0.0
0.00000000 -0.00037600 0.0
-0.00022669 0.00037498 0.0
-0.00100874 0.00164750 0.0
-0.00231746 0.00313462 0.0
-0.00412749 0.00463023 0.0
-0.00638872 0.00600219 0.0
-0.00903182 0.00717016 0.0
-0.01197472 0.00808960 0.0
-0.01512849 0.00874063 0.0
-0.01840224 0.00912013 0.0
-0.02170687 0.00923639 0.0
-0.02495777 0.00910526 0.0
-0.02807675 0.00874741 0.0
-0.03099320 0.00818637 0.0
-0.03364487 0.00744711 0.0
-0.03597811 0.00655506 0.0
-0.03794796 0.00553543 0.0
-0.03951803 0.00441282 0.0
-0.04066028 0.00321105 0.0
-0.04135481 0.00195319 0.0
-0.04158967 0.00066164 0.0
-0.04136073 -0.00064154 0.0
-0.04067168 -0.00193443 0.0
-0.03953404 -0.00319487 0.0
-0.03796738 -0.00440021 0.0
-0.03599951 -0.00552707 0.0
-0.03366673 -0.00655123 0.0
-0.03101402 -0.00744767 0.0
-0.02809522 -0.00819075 0.0
-0.02497288 -0.00875468 0.0
-0.02171800 -0.00911418 0.0
-0.01840924 -0.00924555 0.0
-0.01513167 -0.00912808 0.0
-0.01197484 -0.00874609 0.0
-0.00902994 -0.00809161 0.0
-0.00638607 -0.00716823 0.0
-0.00412525 -0.00599650 0.0
-0.00231654 -0.00462170 0.0
-0.00100954 -0.00312498 0.0
-0.00022898 -0.00163925 0.0
0.00000000 -0.00074033 0.0
-0.00033726 0.00073941 0.0
-0.00138283 0.00269307 0.0
-0.00306606 0.00481784 0.0
-0.00533166 0.00689584 0.0
-0.00810832 0.00877885 0.0
-0.01131021 0.01037205 0.0
-0.01484111 0.01162049 0.0
-0.01859898 0.01249850 0.0
-0.02248039 0.01300154 0.0
-0.02638414 0.01314014 0.0
-0.03021408 0.01293520 0.0
-0.03388120 0.01241453 0.0
-0.03730504 0.01161020 0.0
-0.04041446 0.01055653 0.0
-0.04314812 0.00928873 0.0
-0.04545455 0.00784186 0.0
-0.04729204 0.00625031 0.0
-0.04862844 0.00454745 0.0
-0.04944091 0.00276566 0.0
-0.04971574 0.00093647 0.0
-0.04944819 -0.00090909 0.0
-0.04864247 -0.00274015 0.0
-0.04731180 -0.00452554 0.0
-0.04547863 -0.00623338 0.0
-0.04317481 -0.00783088 0.0
-0.04044193 -0.00928411 0.0
-0.03733148 -0.01055811 0.0
-0.03390501 -0.01161722 0.0
-0.03023397 -0.01242572 0.0
-0.02639929 -0.01294886 0.0
-0.02249052 -0.01315432 0.0
-0.01860434 -0.01301426 0.0
-0.01484248 -0.01250795 0.0
-0.01130878 -0.01162531 0.0
-0.00810548 -0.01037152 0.0
-0.00532884 -0.00877314 0.0
-0.00306442 -0.00688612 0.0
-0.00138305 -0.00480635 0.0
-0.00033929 -0.00268301 0.0
0.00000000 -0.00120317 0.0
-0.00043767 0.00120241 0.0
-0.00173400 0.00398939 0.0
-0.00378124 0.00686508 0.0
-0.00649350 0.00960810 0.0
-0.00977572 0.01206107 0.0
-0.01352322 0.01411954 0.0
-0.01762403 0.01572130 0.0
-0.02196244 0.01683691 0.0
-0.02642272 0.01746181 0.0
-0.03089239 0.01760981 0.0
-0.03526504 0.01730784 0.0
-0.03944234 0.01659183 0.0
-0.04333549 0.01550335 0.0
-0.04686609 0.01408713 0.0
-0.04996656 0.01238919 0.0
-0.05258019 0.01045550 0.0
-0.05466110 0.00833122 0.0
-0.05617392 0.00606027 0.0
-0.05709354 0.00368527 0.0
-0.05740485 0.00124779 0.0
-0.05710265 -0.00121130 0.0
-0.05619151 -0.00365129 0.0
-0.05468596 -0.00603109 0.0
-0.05261062 -0.00830872 0.0
-0.05000052 -0.01044099 0.0
-0.04690138 -0.01238325 0.0
-0.04336988 -0.01408960 0.0
-0.03947383 -0.01551328 0.0
-0.03529199 -0.01660756 0.0
-0.03091368 -0.01732716 0.0
-0.02643784 -0.01763016 0.0
-0.02197155 -0.01748055 0.0
-0.01762789 -0.01685161 0.0
-0.01352313 -0.01573007 0.0
-0.00977330 -0.01412135 0.0
-0.00649046 -0.01205598 0.0
-0.00377910 -0.00959749 0.0
-0.00173375 -0.00685169 0.0
-0.00043950 -0.00397727 0.0
0.00000000 -0.00175643 0.0
-0.00052967 0.00175588 0.0
-0.00206472 0.00552444 0.0
-0.00446583 0.00926618 0.0
-0.00761771 0.01275998 0.0
-0.01140047 0.01584383 0.0
-0.01568871 0.01840778 0.0
-0.02035303 0.02038562 0.0
-0.02526285 0.02174672 0.0
-0.03028951 0.02248847 0.0
-0.03530932 0.02262961 0.0
-0.04020603 0.02220455 0.0
-0.04487278 0.02125858 0.0
-0.04921345 0.01984403 0.0
-0.05314346 0.01801714 0.0
-0.05659008 0.01583581 0.0
-0.05949249 0.01335791 0.0
-0.06180152 0.01064025 0.0
-0.06347937 0.00773811 0.0
-0.06449920 0.00470510 0.0
-0.06484490 0.00159349 0.0
-0.06451085 -0.00154535 0.0
-0.06350191 -0.00466023 0.0
-0.06183350 -0.00769950 0.0
-0.05953184 -0.01061038 0.0
-0.05663433 -0.01333850 0.0
-0.05318987 -0.01582771 0.0
-0.04925929 -0.01802019 0.0
-0.04491548 -0.01985708 0.0
-0.04024347 -0.02127957 0.0
-0.03533995 -0.02223069 0.0
-0.03031249 -0.02265761 0.0
-0.02527813 -0.02251491 0.0
-0.02036135 -0.02176839 0.0
-0.01569146 -0.02039996 0.0
-0.01139953 -0.01841328 0.0
-0.00761514 -0.01584036 0.0
-0.00446357 -0.01274905 0.0
-0.00206419 -0.00925107 0.0
-0.00053134 -0.00551011 0.0
0.00000000 -0.00239501 0.0
-0.00061612 0.00239470 0.0
-0.00238229 0.00729060 0.0
-0.00513185 0.01201575 0.0
-0.00872172 0.01634985 0.0
-0.01300673 0.02012885 0.0
-0.01783935 0.02324039 0.0
-0.02307108 0.02561735 0.0
-0.02855502 0.02723066 0.0
-0.03414862 0.02808207 0.0
-0.03971639 0.02819738 0.0
-0.04513219 0.02762035 0.0
-0.05028095 0.02640734 0.0
-0.05505982 0.02462289 0.0
-0.05937880 0.02233612 0.0
-0.06316090 0.01961791 0.0
-0.06634201 0.01653902 0.0
-0.06887052 0.01316876 0.0
-0.07070684 0.00957443 0.0
-0.07182294 0.00582121 0.0
-0.07220199 0.00197254 0.0
-0.07183809 -0.00190925 0.0
-0.07073620 -0.00576211 0.0
-0.06891232 -0.00952338 0.0
-0.06639373 -0.01312897 0.0
-0.06321947 -0.01651276 0.0
-0.05944082 -0.01960635 0.0
-0.05512184 -0.02233917 0.0
-0.05033969 -0.02463922 0.0
-0.04518483 -0.02643443 0.0
-0.03976078 -0.02765474 0.0
-0.03418345 -0.02823494 0.0
-0.02857995 -0.02811841 0.0
-0.02308671 -0.02726162 0.0
-0.01784716 -0.02563951 0.0
-0.01300887 -0.02325156 0.0
-0.00872068 -0.02012855 0.0
-0.00513010 -0.01633963 0.0
-0.00238176 -0.01199941 0.0
-0.00061771 -0.00727416 0.0
0.00000000 -0.00311695 0.0
-0.00070012 0.00311693 0.0
-0.00269586 0.00928633 0.0
-0.00579560 0.01511549 0.0
-0.00982952 0.02038376 0.0
-0.01462677 0.02492609 0.0
-0.02001635 0.02862997 0.0
-0.02582910 0.03143010 0.0
-0.03190019 0.03330176 0.0
-0.03807195 0.03425383 0.0
-0.04419629 0.03432172 0.0
-0.05013678 0.03356085 0.0
-0.05577018 0.03204073 0.0
-0.06098724 0.02983995 0.0
-0.06569312 0.02704200 0.0
-0.06980730 0.02373209 0.0
-0.07326314 0.01999486 0.0
-0.07600729 0.01591291 0.0
-0.07799903 0.01156617 0.0
-0.07920963 0.00703180 0.0
-0.07962181 0.00238472 0.0
-0.07922947 -0.00230159 0.0
-0.07803757 -0.00695401 0.0
-0.07606234 -0.01149862 0.0
-0.07333158 -0.01585972 0.0
-0.06988533 -0.01995902 0.0
-0.06577647 -0.02371521 0.0
-0.06107151 -0.02704413 0.0
-0.05585115 -0.02985958 0.0
-0.05021072 -0.03207486 0.0
-0.04426022 -0.03360524 0.0
-0.03812392 -0.03437124 0.0
-0.03193939 -0.03430294 0.0
-0.02585591 -0.03334511 0.0
-0.02003228 -0.03146314 0.0
-0.01463424 -0.02864961 0.0
-0.00983153 -0.02493126 0.0
-0.00579524 -0.02037592 0.0
-0.00269574 -0.01509891 0.0
-0.00070174 -0.00926815 0.0
0.00000000 -0.00392343 0.0
-0.00078473 0.00392372 0.0
-0.00301509 0.01151669 0.0
-0.00647505 0.01857544 0.0
-0.01096807 0.02487678 0.0
-0.01629679 0.03025481 0.0
-0.02226528 0.03459847 0.0
-0.02868192 0.03784674 0.0
-0.03536237 0.03998221 0.0
-0.04213241 0.04102387 0.0
-0.04883042 0.04101972 0.0
-0.05530919 0.04003961 0.0
-0.06143715 0.03816869 0.0
-0.06709894 0.03550174 0.0
-0.07219540 0.03213846 0.0
-0.07664312 0.02817981 0.0
-0.08037368 0.02372542 0.0
-0.08333276 0.01887199 0.0
-0.08547913 0.01371254 0.0
-0.08678382 0.00833649 0.0
-0.08722946 0.00283035 0.0
-0.08680980 -0.00272125 0.0
-0.08552969 -0.00823412 0.0
-0.08340520 -0.01362311 0.0
-0.08046415 -0.01880078 0.0
-0.07674685 -0.02367631 0.0
-0.07230706 -0.02815500 0.0
-0.06721294 -0.03213825 0.0
-0.06154804 -0.03552448 0.0
-0.05541204 -0.03821086 0.0
-0.04892119 -0.04009609 0.0
-0.04220823 -0.04108419 0.0
-0.03542176 -0.04108940 0.0
-0.02872491 -0.04004196 0.0
-0.02229332 -0.03789472 0.0
-0.01631257 -0.03463036 0.0
-0.01097514 -0.03026869 0.0
-0.00647726 -0.02487380 0.0
-0.00301594 -0.01856023 0.0
-0.00078653 -0.01149755 0.0
0.00000000 -0.00481857 0.0
-0.00087284 0.00481918 0.0
-0.00334960 0.01399345 0.0
-0.00718851 0.02241435 0.0
-0.01216529 0.02985356 0.0
-0.01805441 0.03614392 0.0
-0.02463311 0.04117717 0.0
-0.03168536 0.04489898 0.0
-0.03900545 0.04730230 0.0
-0.04640122 0.04841964 0.0
-0.05369646 0.04831497 0.0
-0.06073267 0.04707581 0.0
-0.06736988 0.04480590 0.0
-0.07348690 0.04161876 0.0
-0.07898081 0.03763237 0.0
-0.08376608 0.03296508 0.0
-0.08777336 0.02773270 0.0
-0.09094811 0.02204674 0.0
-0.09324933 0.01601376 0.0
-0.09464838 0.00973554 0.0
-0.09512808 0.00331005 0.0
-0.09468219 -0.00316714 0.0
-0.09331524 -0.00960106 0.0
-0.09104279 -0.01589556 0.0
-0.08789206 -0.02195151 0.0
-0.08390290 -0.02766547 0.0
-0.07912906 -0.03292884 0.0
-0.07363952 -0.03762779 0.0
-0.06751989 -0.04164411 0.0
-0.06087362 -0.04485713 0.0
-0.05382291 -0.04714680 0.0
-0.04650909 -0.04839801 0.0
-0.03909237 -0.04850613 0.0
-0.03175076 -0.04738356 0.0
-0.02467830 -0.04496718 0.0
-0.01808229 -0.04122636 0.0
-0.01218002 -0.03617096 0.0
-0.00719486 -0.02985896 0.0
-0.00335213 -0.02240295 0.0
-0.00087502 -0.01397466 0.0
0.00000000 -0.00580926 0.0
-0.00096719 0.00581024 0.0
-0.00370869 0.01673494 0.0
-0.00795408 0.02665975 0.0
-0.01344893 0.03534840 0.0
-0.01993704 0.04263204 0.0
-0.02716631 0.04840644 0.0
-0.03489392 0.05262658 0.0
-0.04289082 0.05529919 0.0
-0.05094534 0.05647415 0.0
-0.05886574 0.05623537 0.0
-0.06648175 0.05469182 0.0
-0.07364510 0.05196925 0.0
-0.08022919 0.04820285 0.0
-0.08612812 0.04353130 0.0
-0.09125519 0.03809215 0.0
-0.09554108 0.03201859 0.0
-0.09893206 0.02543771 0.0
-0.10138816 0.01846985 0.0
-0.10288169 0.01122908 0.0
-0.10339611 0.00382446 0.0
-0.10292525 -0.00363799 0.0
-0.10147318 -0.01105313 0.0
-0.09905449 -0.01831425 0.0
-0.09569511 -0.02531089 0.0
-0.09143355 -0.03192703 0.0
-0.08632251 -0.03803987 0.0
-0.08043075 -0.04351955 0.0
-0.07384497 -0.04822990 0.0
-0.06667161 -0.05203049 0.0
-0.05903836 -0.05478005 0.0
-0.05109509 -0.05634128 0.0
-0.04301408 -0.05658713 0.0
-0.03498933 -0.05540831 0.0
-0.02723482 -0.05272169 0.0
-0.01998172 -0.04847945 0.0
-0.01347457 -0.04267810 0.0
-0.00796652 -0.03536702 0.0
-0.00371384 -0.02665562 0.0
-0.00097000 -0.01671849 0.0
0.00000000 -0.00690506 0.0
-0.00107038 0.00690646 0.0
-0.00410134 0.01976590 0.0
-0.00878930 0.03134770 0.0
-0.01484594 0.04140504 0.0
-0.02198088 0.04976697 0.0
-0.02990938 0.05633494 0.0
-0.03835902 0.06107622 0.0
-0.04707515 0.06401533 0.0
-0.05582504 0.06522404 0.0
-0.06440049 0.06481082 0.0
-0.07261924 0.06291057 0.0
-0.08032499 0.05967500 0.0
-0.08738655 0.05526440 0.0
-0.09369608 0.04984084 0.0
-0.09916693 0.04356300 0.0
-0.10373113 0.03658279 0.0
-0.10733691 0.02904349 0.0
-0.10994639 0.02107933 0.0
-0.11153363 0.01281631 0.0
-0.11208314 0.00437398 0.0
-0.11158903 -0.00413211 0.0
-0.11005468 -0.01258748 0.0
-0.10749319 -0.02087573 0.0
-0.10392836 -0.02887573 0.0
-0.09939625 -0.03645914 0.0
-0.09394730 -0.04348882 0.0
-0.08764870 -0.04981815 0.0
-0.08058694 -0.05529165 0.0
-0.07287037 -0.05974706 0.0
-0.06463139 -0.06301903 0.0
-0.05602809 -0.06494457 0.0
-0.04724513 -0.06537009 0.0
-0.03849341 -0.06416002 0.0
-0.03000857 -0.06120654 0.0
-0.02204799 -0.05644003 0.0
-0.01488643 -0.04983966 0.0
-0.00881021 -0.04144323 0.0
-0.00411026 -0.03135558 0.0
-0.00107413 -0.01975461 0.0
0.00000000 -0.00811811 0.0
-0.00118487 0.00811996 0.0
-0.00453620 0.02311722 0.0
-0.00971103 0.03652253 0.0
-0.01638210 0.04807610 0.0
-0.02422013 0.05760501 0.0
-0.03290366 0.06501846 0.0
-0.04212729 0.07029985 0.0
-0.05160829 0.07349633 0.0
-0.06109123 0.07470697 0.0
-0.07035075 0.07407035 0.0
-0.07919263 0.07175245 0.0
-0.08745330 0.06793566 0.0
-0.09499811 0.06280922 0.0
-0.10171883 0.05656155 0.0
-0.10753049 0.04937466 0.0
-0.11236811 0.04142041 0.0
-0.11618340 0.03285878 0.0
-0.11894183 0.02383777 0.0
-0.12062017 0.01449465 0.0
-0.12120459 0.00495840 0.0
-0.12068963 -0.00464707 0.0
-0.11907778 -0.01419932 0.0
-0.11638000 -0.02357352 0.0
-0.11261694 -0.03263879 0.0
-0.10782090 -0.04125517 0.0
-0.10203848 -0.04927124 0.0
-0.09533359 -0.05652305 0.0
-0.08779081 -0.06283442 0.0
-0.07951884 -0.06801903 0.0
-0.07065356 -0.07188432 0.0
-0.06136058 -0.07423754 0.0
-0.05183689 -0.07489379 0.0
-0.04231109 -0.07368582 0.0
-0.03304216 -0.07047546 0.0
-0.02431635 -0.06516584 0.0
-0.01644213 -0.05771387 0.0
-0.00974330 -0.04814207 0.0
-0.00455026 -0.03654861 0.0
-0.00118996 -0.02311490 0.0
0.00000000 -0.00946301 0.0
-0.00131308 0.00946537 0.0
-0.00502160 0.02682574 0.0
-0.01073541 0.04223633 0.0
-0.01808170 0.05542239 0.0
-0.02668639 0.06620969 0.0
-0.03618622 0.07451829 0.0
-0.04623893 0.08035255 0.0
-0.05653092 0.08378831 0.0
-0.06678252 0.08495857 0.0
-0.07675077 0.08403859 0.0
-0.08622999 0.08123168 0.0
-0.09505056 0.07675623 0.0
-0.10307618 0.07083483 0.0
-0.11020027 0.06368564 0.0
-0.11634173 0.05551613 0.0
-0.12144067 0.04651935 0.0
-0.12545417 0.03687229 0.0
-0.12835264 0.02673624 0.0
-0.13011669 0.01625870 0.0
-0.13073491 0.00557662 0.0
-0.13020247 -0.00517951 0.0
-0.12852072 -0.01588108 0.0
-0.12569771 -0.02639652 0.0
-0.12174974 -0.03658676 0.0
-0.11670374 -0.04630117 0.0
-0.11060048 -0.05537449 0.0
-0.10349844 -0.06362509 0.0
-0.09547805 -0.07085481 0.0
-0.08664618 -0.07685089 0.0
-0.07714040 -0.08139010 0.0
-0.06713256 -0.08424538 0.0
-0.05683146 -0.08519488 0.0
-0.04648392 -0.08403336 0.0
-0.03637391 -0.08058547 0.0
-0.02681941 -0.07472033 0.0
-0.01816677 -0.06636652 0.0
-0.01078243 -0.05552639 0.0
-0.00504247 -0.04228858 0.0
-0.00131997 -0.02683740 0.0
0.00000000 -0.01095684 0.0
-0.00145735 0.01095979 0.0
-0.00556566 0.03093404 0.0
-0.01187783 0.04854850 0.0
-0.01996735 0.06351190 0.0
-0.02940799 0.07565033 0.0
-0.03978872 0.08489902 0.0
-0.05072583 0.09128966 0.0
-0.06187196 0.09493444 0.0
-0.07292181 0.09600842 0.0
-0.08361480 0.09473157 0.0
-0.09373492 0.09135180 0.0
-0.10310845 0.08612976 0.0
-0.11159996 0.07932634 0.0
-0.11910729 0.07119297 0.0
-0.12555606 0.06196489 0.0
-0.13089407 0.05185736 0.0
-0.13508615 0.04106436 0.0
-0.13810950 0.02975959 0.0
-0.13995004 0.01809923 0.0
-0.14059959 0.00622617 0.0
-0.14005426 -0.00572483 0.0
-0.13831396 -0.01762139 0.0
-0.13538296 -0.02932752 0.0
-0.13127177 -0.04069795 0.0
-0.12599998 -0.05157296 0.0
-0.11960015 -0.06177432 0.0
-0.11212259 -0.07110265 0.0
-0.10364068 -0.07933672 0.0
-0.09425662 -0.08623495 0.0
-0.08410702 -0.09153970 0.0
-0.07336797 -0.09498443 0.0
-0.06225896 -0.09630390 0.0
-0.05104502 -0.09524729 0.0
-0.04003662 -0.09159387 0.0
-0.02958655 -0.08517039 0.0
-0.02008371 -0.07586935 0.0
-0.01194354 -0.06366657 0.0
-0.00559526 -0.04863685 0.0
-0.00146658 -0.03096608 0.0
0.00000000 -0.01261915 0.0
-0.00162002 0.01262279 0.0
-0.00617627 0.03549028 0.0
-0.01315293 0.05552516 0.0
-0.02205967 0.07241864 0.0
-0.03240933 0.08599999 0.0
-0.04373600 0.09622569 0.0
-0.05560946 0.10316312 0.0
-0.06764553 0.10697052 0.0
-0.07951228 0.10787516 0.0
-0.09093211 0.10615141 0.0
-0.10168069 0.10210038 0.0
-0.11158311 0.09603217 0.0
-0.12050821 0.08825144 0.0
-0.12836192 0.07904668 0.0
-0.13508009 0.06868307 0.0
-0.14062155 0.05739881 0.0
-0.14496161 0.04540443 0.0
-0.14808660 0.03288458 0.0
-0.14998936 0.02000199 0.0
-0.15066598 0.00690279 0.0
-0.15011386 -0.00627695 0.0
-0.14833111 -0.01940414 0.0
-0.14531725 -0.03234138 0.0
-0.14107532 -0.04493988 0.0
-0.13561528 -0.05703300 0.0
-0.12895861 -0.06843098 0.0
-0.12114410 -0.07891716 0.0
-0.11223442 -0.08824640 0.0
-0.10232332 -0.09614605 0.0
-0.09154293 -0.10232009 0.0
-0.08007054 -0.10645682 0.0
-0.06813429 -0.10824014 0.0
-0.05601683 -0.10736475 0.0
-0.04405618 -0.10355452 0.0
-0.03264310 -0.09658347 0.0
-0.02221437 -0.08629807 0.0
-0.01324177 -0.07263917 0.0
-0.00621682 -0.05566179 0.0
-0.00163223 -0.03555067 0.0
0.00000000 -0.01447204 0.0
-0.00180344 0.01447646 0.0
-0.00686125 0.04054809 0.0
-0.01457457 0.06323847 0.0
-0.02437707 0.08222114 0.0
-0.03571012 0.09733304 0.0
-0.04804465 0.10856022 0.0